 Gaussian 09, Revision D.01,
 Gaussian 09:  EM64L-G09RevD.01 24-Apr-2013

 ----------------------------------------------------------
 #PBEPBE/gen scf=maxcycle=200 NMR=GIAO Scrf=(solvent=water)
 ----------------------------------------------------------

 ------------
 estrutura 61
 ------------
 Symbolic Z-matrix:
 Charge = -2 Multiplicity = 1

                         Standard orientation:
 ---------------------------------------------------------------------
 Center     Atomic      Atomic             Coordinates (Angstroms)
 Number     Number       Type             X           Y           Z
 ---------------------------------------------------------------------
      1         78           0       -0.196633    0.014256    0.069857
      2          7           0        0.337397    1.573224    1.436194
      3          8           0        1.347688    1.467158    2.107906
      4          8           0       -0.399836    2.544594    1.501049
      5          7           0        0.139054   -1.519217    1.521881
      6          8           0       -0.689477   -2.413343    1.597953
      7          8           0        1.127306   -1.474779    2.232503
      8         17           0       -2.453203    0.179164    0.861691
      9          7           0       -0.748633   -1.550046   -1.283364
     10          7           0       -0.550556    1.552392   -1.372465
     11          8           0        0.256878    2.466602   -1.439414
     12          8           0       -1.540966    1.494864   -2.078435
     13          8           0       -0.027890   -2.534573   -1.340350
     14          8           0       -1.764511   -1.438281   -1.944929
     15         35           0        2.180784   -0.155719   -0.780102
 ---------------------------------------------------------------------

 SCF Done:  E(RPBE-PBE) =  -20959.7378252     A.U. after   23 cycles

      1  Pt   Isotropic = -1723.2931   Anisotropy =  1028.9234

      2  N    Isotropic =  -210.7591   Anisotropy =   330.0749

      3  O    Isotropic =  -403.1363   Anisotropy =   549.7326

      4  O    Isotropic =  -396.4114   Anisotropy =   511.0051

      5  N    Isotropic =  -211.5945   Anisotropy =   331.9767

      6  O    Isotropic =  -396.9620   Anisotropy =   517.2383

      7  O    Isotropic =  -402.4484   Anisotropy =   557.8080

      8  Cl   Isotropic =   591.0126   Anisotropy =   762.3854

      9  N    Isotropic =  -210.7075   Anisotropy =   329.9763

     10  N    Isotropic =  -211.3941   Anisotropy =   331.6643

     11  O    Isotropic =  -403.5582   Anisotropy =   516.6991

     12  O    Isotropic =  -399.3279   Anisotropy =   555.0867

     13  O    Isotropic =  -403.4979   Anisotropy =   509.0808

     14  O    Isotropic =  -399.3630   Anisotropy =   547.3459

     15  Br   Isotropic =  1669.7487   Anisotropy =  2008.9512

 The electronic state is 1-A.
 Alpha  occ. eigenvalues -- **********-478.58007-427.60179-414.93101-414.93084
 Alpha  occ. eigenvalues -- -414.93083-100.53211 -99.98209 -92.13887 -92.13868
 Alpha  occ. eigenvalues --  -92.13840 -79.09801 -79.09781 -79.09667 -79.09643
 Alpha  occ. eigenvalues --  -79.09632 -61.49851 -55.68326 -55.68043 -55.68037
 Alpha  occ. eigenvalues --  -20.89701 -18.78122 -18.78095 -18.78091 -18.78068
 Alpha  occ. eigenvalues --  -18.77934 -18.77919 -18.77906 -18.77874 -17.46181
 Alpha  occ. eigenvalues --  -17.46142 -17.46097 -14.17117 -14.17095 -14.17070
 Alpha  occ. eigenvalues --  -14.17063 -11.64606 -11.64568 -11.64129 -11.64061
 Alpha  occ. eigenvalues --  -11.64031  -9.11076  -8.32709  -6.94976  -6.94210
 Alpha  occ. eigenvalues --   -6.94197  -6.23567  -6.22741  -6.22728  -3.19435
 Alpha  occ. eigenvalues --   -3.19400  -3.19362  -3.19141  -3.19101  -3.19094
 Alpha  occ. eigenvalues --   -3.18760  -2.92516  -2.44505  -2.44297  -2.44288
 Alpha  occ. eigenvalues --   -2.43679  -2.43678  -1.86560  -1.86473  -1.86377
 Alpha  occ. eigenvalues --   -1.12368  -1.12162  -1.12079  -1.12043  -0.96054
 Alpha  occ. eigenvalues --   -0.95853  -0.95822  -0.95656  -0.68772  -0.65625
 Alpha  occ. eigenvalues --   -0.58029  -0.57820  -0.56056  -0.56002  -0.48526
 Alpha  occ. eigenvalues --   -0.47589  -0.47239  -0.46739  -0.46595  -0.45523
 Alpha  occ. eigenvalues --   -0.45391  -0.45040  -0.44938  -0.44843  -0.44786
 Alpha  occ. eigenvalues --   -0.44688  -0.36502  -0.33075  -0.32837  -0.31352
 Alpha  occ. eigenvalues --   -0.28830  -0.28097  -0.27889  -0.27757  -0.27266
 Alpha  occ. eigenvalues --   -0.26705  -0.24698  -0.24579  -0.24357  -0.23872
 Alpha  occ. eigenvalues --   -0.23405  -0.23373  -0.22756  -0.21983  -0.21576
 Alpha  occ. eigenvalues --   -0.20622  -0.19890
 Alpha virt. eigenvalues --   -0.13537  -0.10502  -0.09232  -0.08706  -0.08109
 Alpha virt. eigenvalues --   -0.07752   0.00484   0.01375   0.02115   0.02151
 Alpha virt. eigenvalues --    0.04100   0.04665   0.04751   0.05422   0.06029

 Mulliken charges:
               1
     1  Pt  -0.057826
     2  N   -0.103737
     3  O   -0.097068
     4  O   -0.091891
     5  N   -0.104049
     6  O   -0.092048
     7  O   -0.098485
     8  Cl  -0.467539
     9  N   -0.113275
    10  N   -0.113984
    11  O   -0.077403
    12  O   -0.099074
    13  O   -0.077238
    14  O   -0.098961
    15  Br  -0.307423
 Sum of Mulliken charges =  -2.00000

 Dipole moment (field-independent basis, Debye):
    X=              2.0562    Y=             -0.1431    Z=             -0.7490  Tot=              2.1930
 Quadrupole moment (field-independent basis, Debye-Ang):
   XX=           -164.3753   YY=           -166.7238   ZZ=           -158.9601
   XY=             -0.4382   XZ=             -4.7474   YZ=              0.2786

 Normal termination of Gaussian 09 at Sat Oct 30 09:01:19 2021.
