 Gaussian 09, Revision D.01,
 Gaussian 09:  EM64L-G09RevD.01 24-Apr-2013

 ----------------------------------------------------------------------
 #PBEPBE/gen scf=(maxcycle=1000,conver=4) NMR=GIAO Scrf=(solvent=water)
 ----------------------------------------------------------------------

 ------------
 estrutura 30
 ------------
 Symbolic Z-matrix:
 Charge = -2 Multiplicity = 1

                         Standard orientation:
 ---------------------------------------------------------------------
 Center     Atomic      Atomic             Coordinates (Angstroms)
 Number     Number       Type             X           Y           Z
 ---------------------------------------------------------------------
      1         78           0       -0.123582   -0.226835    0.011855
      2         17           0       -0.132667   -0.126158    2.399251
      3         17           0        0.140653   -2.611339    0.138508
      4         35           0        2.446734    0.058474    0.015229
      5         35           0       -0.408876    2.282893   -0.132499
      6         17           0       -0.102282   -0.326178   -2.373584
      7          7           0       -2.215663   -0.479161    0.015036
      8          8           0       -2.693043   -1.311904   -0.730283
      9          8           0       -2.878576    0.209640    0.765722
 ---------------------------------------------------------------------

 SCF Done:  E(RPBE-PBE) =  -23832.0845316     A.U. after   12 cycles

      1  Pt   Isotropic =  -380.1192   Anisotropy =   686.4481

      2  Cl   Isotropic =   646.4002   Anisotropy =   635.0997

      3  Cl   Isotropic =   549.8961   Anisotropy =   794.4638

      4  Br   Isotropic =  2188.8600   Anisotropy =  1158.8212

      5  Br   Isotropic =  1513.4446   Anisotropy =  2179.1939

      6  Cl   Isotropic =   649.4330   Anisotropy =   636.6261

      7  N    Isotropic =  -181.2772   Anisotropy =   252.2193

      8  O    Isotropic =  -377.1590   Anisotropy =   421.4341

      9  O    Isotropic =  -381.1447   Anisotropy =   420.5866

 The electronic state is 1-A.
 Alpha  occ. eigenvalues -- **********-478.58864-478.57517-427.60845-414.93758
 Alpha  occ. eigenvalues -- -414.93747-414.93736-100.54107-100.54087-100.53980
 Alpha  occ. eigenvalues --  -99.98855 -92.14525 -92.14509 -92.14496 -79.10471
 Alpha  occ. eigenvalues --  -79.10437 -79.10297 -79.10293 -79.10280 -61.50684
 Alpha  occ. eigenvalues --  -61.49351 -55.69189 -55.68866 -55.68862 -55.67812
 Alpha  occ. eigenvalues --  -55.67550 -55.67549 -20.90299 -18.79821 -18.79789
 Alpha  occ. eigenvalues --  -17.46767 -17.46735 -17.46704 -14.19081 -11.65272
 Alpha  occ. eigenvalues --  -11.65180 -11.64664 -11.64638 -11.64620  -9.11916
 Alpha  occ. eigenvalues --   -9.11894  -9.11777  -8.33518  -8.32196  -6.95886
 Alpha  occ. eigenvalues --   -6.95863  -6.95734  -6.95023  -6.95011  -6.95002
 Alpha  occ. eigenvalues --   -6.94992  -6.94893  -6.94882  -6.24444  -6.23513
 Alpha  occ. eigenvalues --   -6.23503  -6.23005  -6.22248  -6.22244  -3.20050
 Alpha  occ. eigenvalues --   -3.20017  -3.19974  -3.19722  -3.19684  -3.19662
 Alpha  occ. eigenvalues --   -3.19284  -2.92933  -2.45360  -2.45126  -2.45119
 Alpha  occ. eigenvalues --   -2.44435  -2.44434  -2.43953  -2.43761  -2.43758
 Alpha  occ. eigenvalues --   -2.43201  -2.43200  -1.86911  -1.86807  -1.86743
 Alpha  occ. eigenvalues --   -1.13982  -0.97771  -0.70060  -0.68958  -0.68864
 Alpha  occ. eigenvalues --   -0.66195  -0.64920  -0.58419  -0.48671  -0.47765
 Alpha  occ. eigenvalues --   -0.46553  -0.38181  -0.36147  -0.34971  -0.34134
 Alpha  occ. eigenvalues --   -0.33530  -0.30985  -0.29163  -0.29036  -0.28721
 Alpha  occ. eigenvalues --   -0.25614  -0.25057  -0.24319  -0.24045  -0.23970
 Alpha  occ. eigenvalues --   -0.23252  -0.23225  -0.22957  -0.22536  -0.22032
 Alpha  occ. eigenvalues --   -0.21802  -0.21533
 Alpha virt. eigenvalues --   -0.15293  -0.13845  -0.09585  -0.00732   0.00755
 Alpha virt. eigenvalues --    0.01085   0.01387   0.03128   0.03315   0.03376
 Alpha virt. eigenvalues --    0.03719   0.03774   0.06013   0.06196   0.06363

 Mulliken charges:
               1
     1  Pt  -0.269683
     2  Cl  -0.289113
     3  Cl  -0.307612
     4  Br  -0.394816
     5  Br  -0.275758
     6  Cl  -0.283282
     7  N   -0.012341
     8  O   -0.088148
     9  O   -0.079248
 Sum of Mulliken charges =  -2.00000

 Dipole moment (field-independent basis, Debye):
    X=             -1.0275    Y=              2.3084    Z=             -0.1549  Tot=              2.5315
 Quadrupole moment (field-independent basis, Debye-Ang):
   XX=           -154.6753   YY=           -152.6561   ZZ=           -151.7285
   XY=             -0.2300   XZ=              0.2348   YZ=             -1.6107

 Normal termination of Gaussian 09 at Sat Oct 30 02:48:16 2021.
