 Gaussian 09, Revision D.01,
 Gaussian 09:  EM64L-G09RevD.01 24-Apr-2013

 ----------------------------------------------------------
 #PBEPBE/gen scf=maxcycle=200 NMR=GIAO Scrf=(solvent=water)
 ----------------------------------------------------------

 ------------
 estrutura 34
 ------------
 Symbolic Z-matrix:
 Charge = -2 Multiplicity = 1

                         Standard orientation:
 ---------------------------------------------------------------------
 Center     Atomic      Atomic             Coordinates (Angstroms)
 Number     Number       Type             X           Y           Z
 ---------------------------------------------------------------------
      1         78           0        0.000015   -0.000045   -0.051747
      2         35           0        1.730866    1.867432   -0.069036
      3         35           0       -1.842989    1.756765   -0.072427
      4          7           0        0.000023   -0.000551    2.041635
      5          8           0        1.069875    0.021032    2.621421
      6          8           0       -1.069898   -0.022431    2.621294
      7         17           0       -0.000119    0.000465   -2.486042
      8         35           0       -1.730977   -1.867344   -0.069458
      9         35           0        1.843125   -1.756548   -0.072913
 ---------------------------------------------------------------------

 SCF Done:  E(RPBE-PBE) =  -28048.0610910     A.U. after   17 cycles

      1  Pt   Isotropic =   164.0842   Anisotropy =  2137.1221

      2  Br   Isotropic =  1455.1103   Anisotropy =  2239.4881

      3  Br   Isotropic =  1442.5501   Anisotropy =  2257.3363

      4  N    Isotropic =  -176.0694   Anisotropy =   249.3595

      5  O    Isotropic =  -408.9594   Anisotropy =   405.2977

      6  O    Isotropic =  -408.9874   Anisotropy =   405.2911

      7  Cl   Isotropic =   924.6588   Anisotropy =   191.4935

      8  Br   Isotropic =  1455.0597   Anisotropy =  2239.5860

      9  Br   Isotropic =  1442.7659   Anisotropy =  2257.0053

 The electronic state is 1-A.
 Alpha  occ. eigenvalues -- **********-478.58545-478.58545-478.58537-478.58537
 Alpha  occ. eigenvalues -- -427.60422-414.93336-414.93324-414.93317-100.52739
 Alpha  occ. eigenvalues --  -99.98433 -92.14109 -92.14085 -92.14071 -79.10039
 Alpha  occ. eigenvalues --  -79.10014 -79.09886 -79.09868 -79.09858 -61.50371
 Alpha  occ. eigenvalues --  -61.50371 -61.50364 -61.50363 -55.68869 -55.68869
 Alpha  occ. eigenvalues --  -55.68862 -55.68861 -55.68554 -55.68554 -55.68550
 Alpha  occ. eigenvalues --  -55.68550 -55.68547 -55.68546 -55.68543 -55.68542
 Alpha  occ. eigenvalues --  -20.89872 -18.79529 -18.79529 -17.46351 -17.46299
 Alpha  occ. eigenvalues --  -17.46274 -14.19268 -11.64810 -11.64750 -11.64265
 Alpha  occ. eigenvalues --  -11.64216 -11.64193  -9.10574  -8.33211  -8.33211
 Alpha  occ. eigenvalues --   -8.33204  -8.33204  -6.94445  -6.93723  -6.93721
 Alpha  occ. eigenvalues --   -6.24125  -6.24125  -6.24119  -6.24118  -6.23213
 Alpha  occ. eigenvalues --   -6.23213  -6.23206  -6.23205  -6.23203  -6.23203
 Alpha  occ. eigenvalues --   -6.23196  -6.23195  -3.19603  -3.19574  -3.19544
 Alpha  occ. eigenvalues --   -3.19269  -3.19268  -3.19259  -3.18879  -2.92519
 Alpha  occ. eigenvalues --   -2.45044  -2.45043  -2.45037  -2.45036  -2.44816
 Alpha  occ. eigenvalues --   -2.44816  -2.44809  -2.44809  -2.44808  -2.44808
 Alpha  occ. eigenvalues --   -2.44801  -2.44801  -2.44138  -2.44138  -2.44137
 Alpha  occ. eigenvalues --   -2.44137  -2.44131  -2.44130  -2.44130  -2.44129
 Alpha  occ. eigenvalues --   -1.86533  -1.86393  -1.86323  -1.13826  -0.97513
 Alpha  occ. eigenvalues --   -0.68302  -0.66612  -0.65663  -0.65660  -0.65562
 Alpha  occ. eigenvalues --   -0.58507  -0.48619  -0.47702  -0.46420  -0.36823
 Alpha  occ. eigenvalues --   -0.35519  -0.33996  -0.33697  -0.33209  -0.31273
 Alpha  occ. eigenvalues --   -0.28829  -0.28232  -0.27764  -0.24576  -0.24565
 Alpha  occ. eigenvalues --   -0.23294  -0.23160  -0.23033  -0.23000  -0.22828
 Alpha  occ. eigenvalues --   -0.22820  -0.22775  -0.21820  -0.21521  -0.20954
 Alpha virt. eigenvalues --   -0.15508  -0.13724  -0.09596  -0.00729   0.00425
 Alpha virt. eigenvalues --    0.00504   0.01269   0.02543   0.02668   0.02985
 Alpha virt. eigenvalues --    0.03004   0.03387   0.04750   0.04764   0.05336

 Mulliken charges:
               1
     1  Pt  -0.289854
     2  Br  -0.300551
     3  Br  -0.300183
     4  N   -0.037218
     5  O   -0.066399
     6  O   -0.066394
     7  Cl  -0.338710
     8  Br  -0.300559
     9  Br  -0.300132
 Sum of Mulliken charges =  -2.00000

 Dipole moment (field-independent basis, Debye):
    X=              0.0007    Y=             -0.0009    Z=              2.4956  Tot=              2.4956
 Quadrupole moment (field-independent basis, Debye-Ang):
   XX=           -166.9163   YY=           -163.5917   ZZ=           -167.1107
   XY=             -0.0586   XZ=             -0.0004   YZ=              0.0023

 Normal termination of Gaussian 09 at Sat Oct 30 03:58:40 2021.
