 Gaussian 09, Revision D.01,
 Gaussian 09:  EM64L-G09RevD.01 24-Apr-2013

 ----------------------------------------------------------
 #PBEPBE/gen scf=maxcycle=200 NMR=GIAO Scrf=(solvent=water)
 ----------------------------------------------------------

 ------------
 estrutura 20
 ------------
 Symbolic Z-matrix:
 Charge = -2 Multiplicity = 1

                         Standard orientation:
 ---------------------------------------------------------------------
 Center     Atomic      Atomic             Coordinates (Angstroms)
 Number     Number       Type             X           Y           Z
 ---------------------------------------------------------------------
      1         78           0        0.000000    0.000000    0.000000
      2         17           0        0.000000    2.388331    0.000000
      3         17           0        2.388331    0.000000    0.000000
      4         35           0        0.000000    0.000000    2.546853
      5         35           0        0.000000    0.000000   -2.546853
      6         17           0       -2.388331    0.000000    0.000000
      7         17           0        0.000000   -2.388331    0.000000
 ---------------------------------------------------------------------

 SCF Done:  E(RPBE-PBE) =  -24086.8653382     A.U. after   15 cycles

      1  Pt   Isotropic =   358.9835   Anisotropy =   560.7526

      2  Cl   Isotropic =   650.9664   Anisotropy =   629.0997

      3  Cl   Isotropic =   650.9670   Anisotropy =   629.0989

      4  Br   Isotropic =  1158.6373   Anisotropy =  2724.0213

      5  Br   Isotropic =  1158.6373   Anisotropy =  2724.0213

      6  Cl   Isotropic =   650.9670   Anisotropy =   629.0989

      7  Cl   Isotropic =   650.9664   Anisotropy =   629.0997

 Unable to determine electronic state:  an orbital has unidentified symmetry.
 Alpha  occ. eigenvalues -- **********-478.58853-478.58853-427.61084-414.93991
 Alpha  occ. eigenvalues -- -414.93991-414.93968-100.54316-100.54316-100.54316
 Alpha  occ. eigenvalues -- -100.54316 -99.99082 -92.14748 -92.14748 -92.14715
 Alpha  occ. eigenvalues --  -79.10711 -79.10673 -79.10525 -79.10511 -79.10511
 Alpha  occ. eigenvalues --  -61.50672 -61.50672 -55.69181 -55.69181 -55.68850
 Alpha  occ. eigenvalues --  -55.68850 -55.68850 -55.68850 -20.90503 -17.46962
 Alpha  occ. eigenvalues --  -17.46962 -17.46892 -11.65504 -11.65405 -11.64842
 Alpha  occ. eigenvalues --  -11.64820 -11.64820  -9.12121  -9.12121  -9.12121
 Alpha  occ. eigenvalues --   -9.12121  -8.33508  -8.33507  -6.96112  -6.96112
 Alpha  occ. eigenvalues --   -6.96112  -6.96112  -6.95214  -6.95214  -6.95214
 Alpha  occ. eigenvalues --   -6.95214  -6.95212  -6.95212  -6.95212  -6.95212
 Alpha  occ. eigenvalues --   -6.24448  -6.24447  -6.23491  -6.23491  -6.23491
 Alpha  occ. eigenvalues --   -6.23491  -3.20256  -3.20256  -3.20183  -3.19907
 Alpha  occ. eigenvalues --   -3.19868  -3.19868  -3.19453  -2.93061  -2.45358
 Alpha  occ. eigenvalues --   -2.45358  -2.45116  -2.45116  -2.45116  -2.45116
 Alpha  occ. eigenvalues --   -2.44414  -2.44414  -2.44414  -2.44414  -1.86985
 Alpha  occ. eigenvalues --   -1.86985  -1.86780  -0.70576  -0.69315  -0.69019
 Alpha  occ. eigenvalues --   -0.69019  -0.66301  -0.65830  -0.38552  -0.37666
 Alpha  occ. eigenvalues --   -0.35230  -0.34737  -0.34737  -0.33487  -0.29530
 Alpha  occ. eigenvalues --   -0.29530  -0.28975  -0.24707  -0.24675  -0.24675
 Alpha  occ. eigenvalues --   -0.23743  -0.23467  -0.23467  -0.23356  -0.23356
 Alpha  occ. eigenvalues --   -0.23339  -0.22656  -0.21807  -0.21807
 Alpha virt. eigenvalues --   -0.15637  -0.15245  -0.00940   0.00590   0.01121
 Alpha virt. eigenvalues --    0.01121   0.02930   0.03007   0.03007   0.03457
 Alpha virt. eigenvalues --    0.04456   0.05472   0.05472   0.05841   0.06794

 Mulliken charges:
               1
     1  Pt  -0.366952
     2  Cl  -0.260387
     3  Cl  -0.260387
     4  Br  -0.295749
     5  Br  -0.295749
     6  Cl  -0.260387
     7  Cl  -0.260387
 Sum of Mulliken charges =  -2.00000

 Dipole moment (field-independent basis, Debye):
    X=              0.0000    Y=              0.0000    Z=              0.0000  Tot=              0.0000
 Quadrupole moment (field-independent basis, Debye-Ang):
   XX=           -147.0420   YY=           -147.0420   ZZ=           -147.7128
   XY=              0.0000   XZ=              0.0000   YZ=              0.0000

 Normal termination of Gaussian 09 at Sat Oct 30 00:51:24 2021.
