 Gaussian 09, Revision D.01,
 Gaussian 09:  EM64L-G09RevD.01 24-Apr-2013

 ----------------------------------------------------------
 #PBEPBE/gen scf=maxcycle=200 NMR=GIAO Scrf=(solvent=water)
 ----------------------------------------------------------

 ------------
 estrutura 51
 ------------
 Symbolic Z-matrix:
 Charge = -2 Multiplicity = 1

                         Standard orientation:
 ---------------------------------------------------------------------
 Center     Atomic      Atomic             Coordinates (Angstroms)
 Number     Number       Type             X           Y           Z
 ---------------------------------------------------------------------
      1         78           0       -0.215097    0.053031   -0.047211
      2          7           0       -0.136182   -0.251416    2.029967
      3          7           0        0.144401    2.152317    0.168820
      4          8           0        0.651781    0.393950    2.692907
      5          8           0       -0.904540   -1.066586    2.504167
      6          8           0        1.159181    2.531451    0.727115
      7          8           0       -0.674860    2.925659   -0.300432
      8         35           0        2.263956   -0.405651   -0.284954
      9          7           0       -0.584506   -2.029148   -0.319133
     10          8           0        0.052240   -2.828101    0.349507
     11          8           0       -1.420292   -2.373824   -1.136892
     12         17           0       -2.573638    0.425252    0.200331
     13         17           0       -0.328417    0.415847   -2.446963
 ---------------------------------------------------------------------

 SCF Done:  E(RPBE-PBE) =  -21214.5271583     A.U. after   23 cycles

      1  Pt   Isotropic = -1550.1677   Anisotropy =   808.5143

      2  N    Isotropic =  -180.5647   Anisotropy =   261.3849

      3  N    Isotropic =  -210.0798   Anisotropy =   328.1543

      4  O    Isotropic =  -378.1294   Anisotropy =   476.1145

      5  O    Isotropic =  -375.7093   Anisotropy =   444.3510

      6  O    Isotropic =  -399.7651   Anisotropy =   538.5931

      7  O    Isotropic =  -399.3204   Anisotropy =   529.8487

      8  Br   Isotropic =  1612.1185   Anisotropy =  2042.8791

      9  N    Isotropic =  -211.5400   Anisotropy =   330.0775

     10  O    Isotropic =  -403.8215   Anisotropy =   509.8194

     11  O    Isotropic =  -402.8681   Anisotropy =   526.5210

     12  Cl   Isotropic =   560.0796   Anisotropy =   800.3419

     13  Cl   Isotropic =   880.7460   Anisotropy =   285.7420

 The electronic state is 1-A.
 Alpha  occ. eigenvalues -- **********-478.58253-427.60470-414.93389-414.93374
 Alpha  occ. eigenvalues -- -414.93373-100.53408-100.52621 -99.98494 -92.14171
 Alpha  occ. eigenvalues --  -92.14147 -92.14133 -79.10095 -79.10069 -79.09948
 Alpha  occ. eigenvalues --  -79.09931 -79.09916 -61.50091 -55.68575 -55.68279
 Alpha  occ. eigenvalues --  -55.68274 -20.89975 -18.79487 -18.79408 -18.78199
 Alpha  occ. eigenvalues --  -18.78090 -18.78055 -18.77947 -17.46454 -17.46402
 Alpha  occ. eigenvalues --  -17.46383 -14.19072 -14.17220 -14.17095 -11.64902
 Alpha  occ. eigenvalues --  -11.64843 -11.64384 -11.64332 -11.64300  -9.11261
 Alpha  occ. eigenvalues --   -9.10477  -8.32944  -6.95177  -6.94392  -6.94374
 Alpha  occ. eigenvalues --   -6.94326  -6.93634  -6.93630  -6.23825  -6.22964
 Alpha  occ. eigenvalues --   -6.22950  -3.19713  -3.19674  -3.19649  -3.19397
 Alpha  occ. eigenvalues --   -3.19380  -3.19363  -3.19011  -2.92740  -2.44755
 Alpha  occ. eigenvalues --   -2.44539  -2.44530  -2.43895  -2.43895  -1.86783
 Alpha  occ. eigenvalues --   -1.86648  -1.86597  -1.13820  -1.12249  -1.12140
 Alpha  occ. eigenvalues --   -0.97596  -0.95917  -0.95782  -0.68976  -0.68045
 Alpha  occ. eigenvalues --   -0.65744  -0.58375  -0.58005  -0.56076  -0.48875
 Alpha  occ. eigenvalues --   -0.48173  -0.47725  -0.46446  -0.46263  -0.45714
 Alpha  occ. eigenvalues --   -0.45510  -0.45184  -0.44992  -0.36777  -0.33840
 Alpha  occ. eigenvalues --   -0.33276  -0.32755  -0.32124  -0.28875  -0.28020
 Alpha  occ. eigenvalues --   -0.27707  -0.27290  -0.26459  -0.25322  -0.24767
 Alpha  occ. eigenvalues --   -0.24099  -0.23601  -0.23363  -0.23149  -0.22944
 Alpha  occ. eigenvalues --   -0.22687  -0.21875  -0.21675  -0.20344
 Alpha virt. eigenvalues --   -0.14152  -0.11468  -0.09524  -0.09007  -0.07995
 Alpha virt. eigenvalues --    0.00222   0.01067   0.01763   0.02084   0.03445
 Alpha virt. eigenvalues --    0.04148   0.04591   0.05238   0.05289   0.06969

 Mulliken charges:
               1
     1  Pt  -0.134899
     2  N   -0.037580
     3  N   -0.076487
     4  O   -0.094046
     5  O   -0.076608
     6  O   -0.091382
     7  O   -0.109357
     8  Br  -0.287100
     9  N   -0.070292
    10  O   -0.083895
    11  O   -0.116679
    12  Cl  -0.435482
    13  Cl  -0.386193
 Sum of Mulliken charges =  -2.00000

 Dipole moment (field-independent basis, Debye):
    X=              2.3944    Y=             -0.6608    Z=              2.3358  Tot=              3.4096
 Quadrupole moment (field-independent basis, Debye-Ang):
   XX=           -157.5653   YY=           -160.3768   ZZ=           -155.9644
   XY=             -1.7226   XZ=             -3.9930   YZ=              1.2263

 Normal termination of Gaussian 09 at Wed May 11 14:54:53 2022.
