 Gaussian 09, Revision D.01,
 Gaussian 09:  EM64L-G09RevD.01 24-Apr-2013

 ----------------------------------------------------------
 #PBEPBE/gen scf=maxcycle=200 NMR=GIAO Scrf=(solvent=water)
 ----------------------------------------------------------

 ------------
 estrutura 60
 ------------
 Symbolic Z-matrix:
 Charge = -2 Multiplicity = 1

                         Standard orientation:
 ---------------------------------------------------------------------
 Center     Atomic      Atomic             Coordinates (Angstroms)
 Number     Number       Type             X           Y           Z
 ---------------------------------------------------------------------
      1         78           0        0.004430   -0.000023   -0.000006
      2          7           0        1.544091    1.427300   -0.392690
      3          8           0        1.437717    2.557982    0.047738
      4          8           0        2.499113    1.063996   -1.060172
      5          7           0       -1.561448    1.410114   -0.368601
      6          8           0       -2.457419    1.071813   -1.127620
      7          8           0       -1.545143    2.490365    0.192106
      8         17           0        0.027543    0.543495    2.321492
      9         17           0        0.027632   -0.543577   -2.321394
     10          7           0       -1.561286   -1.410236    0.368571
     11          7           0        1.544345   -1.427074    0.392679
     12          8           0        2.499480   -1.063438    1.059816
     13          8           0        1.438021   -2.557892   -0.047388
     14          8           0       -2.457395   -1.071972    1.127443
     15          8           0       -1.544802   -2.490549   -0.192036
 ---------------------------------------------------------------------

 SCF Done:  E(RPBE-PBE) =  -18851.7501882     A.U. after   20 cycles

      1  Pt   Isotropic = -1939.6039   Anisotropy =   809.2235

      2  N    Isotropic =  -210.7565   Anisotropy =   330.0909

      3  O    Isotropic =  -395.8779   Anisotropy =   556.2119

      4  O    Isotropic =  -394.6402   Anisotropy =   521.1090

      5  N    Isotropic =  -211.8767   Anisotropy =   333.4637

      6  O    Isotropic =  -394.6393   Anisotropy =   517.8603

      7  O    Isotropic =  -395.2593   Anisotropy =   555.5970

      8  Cl   Isotropic =   622.8474   Anisotropy =   710.4645

      9  Cl   Isotropic =   622.8524   Anisotropy =   710.4077

     10  N    Isotropic =  -211.8764   Anisotropy =   333.4649

     11  N    Isotropic =  -210.7530   Anisotropy =   330.0813

     12  O    Isotropic =  -394.6428   Anisotropy =   521.0936

     13  O    Isotropic =  -395.8630   Anisotropy =   556.2220

     14  O    Isotropic =  -394.6467   Anisotropy =   517.8744

     15  O    Isotropic =  -395.2827   Anisotropy =   555.6235

 The electronic state is 1-A.
 Alpha  occ. eigenvalues -- **********-427.60327-414.93248-414.93237-414.93229
 Alpha  occ. eigenvalues -- -100.53279-100.53278 -99.98357 -92.14034 -92.14015
 Alpha  occ. eigenvalues --  -92.13991 -79.09949 -79.09936 -79.09815 -79.09790
 Alpha  occ. eigenvalues --  -79.09778 -20.89853 -18.78140 -18.78140 -18.78122
 Alpha  occ. eigenvalues --  -18.78122 -18.77993 -18.77993 -18.77902 -18.77902
 Alpha  occ. eigenvalues --  -17.46331 -17.46290 -17.46256 -14.17154 -14.17153
 Alpha  occ. eigenvalues --  -14.17067 -14.17067 -11.64754 -11.64741 -11.64278
 Alpha  occ. eigenvalues --  -11.64205 -11.64177  -9.11149  -9.11148  -6.95056
 Alpha  occ. eigenvalues --   -6.95055  -6.94279  -6.94278  -6.94265  -6.94265
 Alpha  occ. eigenvalues --   -3.19589  -3.19551  -3.19533  -3.19300  -3.19255
 Alpha  occ. eigenvalues --   -3.19234  -3.18902  -2.92671  -1.86698  -1.86652
 Alpha  occ. eigenvalues --   -1.86527  -1.12402  -1.12187  -1.12140  -1.12055
 Alpha  occ. eigenvalues --   -0.96096  -0.95892  -0.95866  -0.95717  -0.69298
 Alpha  occ. eigenvalues --   -0.68373  -0.58075  -0.57873  -0.56062  -0.56047
 Alpha  occ. eigenvalues --   -0.48534  -0.47678  -0.47330  -0.46767  -0.46614
 Alpha  occ. eigenvalues --   -0.45542  -0.45406  -0.45066  -0.44975  -0.44893
 Alpha  occ. eigenvalues --   -0.44812  -0.44705  -0.37146  -0.33407  -0.33218
 Alpha  occ. eigenvalues --   -0.31427  -0.28890  -0.28194  -0.28094  -0.27921
 Alpha  occ. eigenvalues --   -0.27602  -0.26801  -0.25024  -0.24938  -0.24425
 Alpha  occ. eigenvalues --   -0.23904  -0.23752  -0.23488  -0.23023  -0.22440
 Alpha  occ. eigenvalues --   -0.22022  -0.20616  -0.19921
 Alpha virt. eigenvalues --   -0.13242  -0.10497  -0.09246  -0.08737  -0.08097
 Alpha virt. eigenvalues --   -0.07813   0.01141   0.01184   0.03594   0.03764
 Alpha virt. eigenvalues --    0.04515   0.05086   0.05233   0.05561   0.06118

 Mulliken charges:
               1
     1  Pt   0.220117
     2  N   -0.146337
     3  O   -0.101286
     4  O   -0.085955
     5  N   -0.149761
     6  O   -0.091697
     7  O   -0.095657
     8  Cl  -0.439403
     9  Cl  -0.439352
    10  N   -0.149763
    11  N   -0.146319
    12  O   -0.085959
    13  O   -0.101272
    14  O   -0.091693
    15  O   -0.095663
 Sum of Mulliken charges =  -2.00000

 Dipole moment (field-independent basis, Debye):
    X=              0.1044    Y=             -0.0002    Z=             -0.0005  Tot=              0.1044
 Quadrupole moment (field-independent basis, Debye-Ang):
   XX=           -160.3188   YY=           -158.2008   ZZ=           -151.5838
   XY=             -0.0009   XZ=              0.0004   YZ=             -4.5178

 Normal termination of Gaussian 09 at Sat Oct 30 08:31:52 2021.
