 Gaussian 09, Revision D.01,
 Gaussian 09:  EM64L-G09RevD.01 24-Apr-2013

 ----------------------------------------------------------
 #PBEPBE/gen scf=maxcycle=200 NMR=GIAO Scrf=(solvent=water)
 ----------------------------------------------------------

 ------------
 estrutura 12
 ------------
 Symbolic Z-matrix:
 Charge = -2 Multiplicity = 1

                         Standard orientation:
 ---------------------------------------------------------------------
 Center     Atomic      Atomic             Coordinates (Angstroms)
 Number     Number       Type             X           Y           Z
 ---------------------------------------------------------------------
      1         78           0        0.000000    0.000000    0.190459
      2         35           0        0.000000    0.000000   -2.329035
      3         35           0        0.000000    2.560788    0.195174
      4         35           0        0.000000   -2.560788    0.195174
      5         17           0        0.000000    0.000000    2.585644
      6          7           0        2.153403    0.000000    0.194208
      7          7           0       -2.153403    0.000000    0.194208
      8          8           0        2.745616   -1.066567    0.197606
      9          8           0        2.745616    1.066567    0.197606
     10          8           0       -2.745616   -1.066567    0.197606
     11          8           0       -2.745616    1.066567    0.197606
 ---------------------------------------------------------------------

 SCF Done:  E(RPBE-PBE) =  -25685.2782987     A.U. after   18 cycles

      1  Pt   Isotropic =    16.9631   Anisotropy =  1496.2725

      2  Br   Isotropic =  2137.1664   Anisotropy =  1279.2803

      3  Br   Isotropic =   587.5759   Anisotropy =  3501.2076

      4  Br   Isotropic =   587.5759   Anisotropy =  3501.2076

      5  Cl   Isotropic =   810.3093   Anisotropy =   420.3023

      6  N    Isotropic =  -211.1608   Anisotropy =   314.5786

      7  N    Isotropic =  -211.1608   Anisotropy =   314.5786

      8  O    Isotropic =  -446.6534   Anisotropy =   387.3041

      9  O    Isotropic =  -446.6534   Anisotropy =   387.3041

     10  O    Isotropic =  -446.6534   Anisotropy =   387.3041

     11  O    Isotropic =  -446.6534   Anisotropy =   387.3041

 The electronic state is 1-A1.
 Alpha  occ. eigenvalues -- **********-478.58906-478.57963-478.57962-427.60129
 Alpha  occ. eigenvalues -- -414.93036-414.93035-414.93030-100.54022 -99.98147
 Alpha  occ. eigenvalues --  -92.13815 -92.13796 -92.13795 -79.09751 -79.09723
 Alpha  occ. eigenvalues --  -79.09586 -79.09584 -79.09581 -61.50732 -61.49797
 Alpha  occ. eigenvalues --  -61.49797 -55.69225 -55.68920 -55.68910 -55.68299
 Alpha  occ. eigenvalues --  -55.68299 -55.67985 -55.67985 -55.67964 -55.67964
 Alpha  occ. eigenvalues --  -20.89599 -18.78028 -18.78028 -18.78028 -18.78028
 Alpha  occ. eigenvalues --  -17.46059 -17.46026 -17.46022 -14.17363 -14.17363
 Alpha  occ. eigenvalues --  -11.64538 -11.64467 -11.63963 -11.63957 -11.63948
 Alpha  occ. eigenvalues --   -9.11843  -8.33576  -8.32643  -8.32643  -6.95772
 Alpha  occ. eigenvalues --   -6.94977  -6.94949  -6.24478  -6.23591  -6.23570
 Alpha  occ. eigenvalues --   -6.23570  -6.23565  -6.22661  -6.22661  -6.22607
 Alpha  occ. eigenvalues --   -6.22607  -3.19326  -3.19295  -3.19276  -3.19019
 Alpha  occ. eigenvalues --   -3.19002  -3.18969  -3.18620  -2.92291  -2.45402
 Alpha  occ. eigenvalues --   -2.45182  -2.45161  -2.44509  -2.44509  -2.44486
 Alpha  occ. eigenvalues --   -2.44486  -2.44270  -2.44270  -2.44232  -2.44232
 Alpha  occ. eigenvalues --   -2.43563  -2.43563  -2.43561  -2.43561  -1.86275
 Alpha  occ. eigenvalues --   -1.86167  -1.86165  -1.12332  -1.12252  -0.95790
 Alpha  occ. eigenvalues --   -0.95777  -0.69386  -0.66487  -0.65520  -0.65095
 Alpha  occ. eigenvalues --   -0.57867  -0.56118  -0.47833  -0.46516  -0.45925
 Alpha  occ. eigenvalues --   -0.45756  -0.45184  -0.45029  -0.37181  -0.34837
 Alpha  occ. eigenvalues --   -0.34203  -0.32888  -0.32371  -0.27996  -0.27886
 Alpha  occ. eigenvalues --   -0.27469  -0.27410  -0.26158  -0.25210  -0.24283
 Alpha  occ. eigenvalues --   -0.24059  -0.23115  -0.23021  -0.22877  -0.22810
 Alpha  occ. eigenvalues --   -0.22663  -0.21095  -0.20144  -0.19832
 Alpha virt. eigenvalues --   -0.15337  -0.12572  -0.09105  -0.08178  -0.00231
 Alpha virt. eigenvalues --    0.00562   0.00685   0.01537   0.02745   0.02781
 Alpha virt. eigenvalues --    0.02974   0.03774   0.04324   0.05104   0.05230

 Mulliken charges:
               1
     1  Pt  -0.435868
     2  Br  -0.273183
     3  Br  -0.275348
     4  Br  -0.275348
     5  Cl  -0.306641
     6  N    0.000523
     7  N    0.000523
     8  O   -0.108665
     9  O   -0.108665
    10  O   -0.108665
    11  O   -0.108665
 Sum of Mulliken charges =  -2.00000

 Dipole moment (field-independent basis, Debye):
    X=              0.0000    Y=              0.0000    Z=             -2.1648  Tot=              2.1648
 Quadrupole moment (field-independent basis, Debye-Ang):
   XX=           -168.3887   YY=           -168.8500   ZZ=           -158.4377
   XY=              0.0000   XZ=              0.0000   YZ=              0.0000

 Normal termination of Gaussian 09 at Fri Oct 29 23:46:54 2021.
