 Gaussian 09, Revision D.01,
 Gaussian 09:  EM64L-G09RevD.01 24-Apr-2013

 ----------------------------------------------------------
 #PBEPBE/gen scf=maxcycle=200 NMR=GIAO Scrf=(solvent=water)
 ----------------------------------------------------------

 ------------
 estrutura 50
 ------------
 Symbolic Z-matrix:
 Charge = -2 Multiplicity = 1

                         Standard orientation:
 ---------------------------------------------------------------------
 Center     Atomic      Atomic             Coordinates (Angstroms)
 Number     Number       Type             X           Y           Z
 ---------------------------------------------------------------------
      1         78           0        0.013371   -0.072838   -0.020603
      2         17           0        0.303383   -2.372440   -0.752629
      3          7           0        2.138803    0.062105    0.171037
      4          7           0       -0.239924    1.919392    0.593440
      5          8           0        2.736591    0.930614   -0.439907
      6          8           0        2.706245   -0.755094    0.877856
      7          8           0        0.523515    2.763607    0.170592
      8          8           0       -1.156238    2.159652    1.356904
      9         17           0       -0.150504   -0.732194    2.269129
     10         17           0        0.126127    0.604860   -2.305880
     11          7           0       -2.098998   -0.249760   -0.221966
     12          8           0       -2.644243   -1.269436    0.163333
     13          8           0       -2.714022    0.677576   -0.725159
 ---------------------------------------------------------------------

 SCF Done:  E(RPBE-PBE) =  -19106.5394201     A.U. after   22 cycles

      1  Pt   Isotropic = -1782.1453   Anisotropy =   599.8371

      2  Cl   Isotropic =   862.6735   Anisotropy =   320.5281

      3  N    Isotropic =  -209.7130   Anisotropy =   327.9601

      4  N    Isotropic =  -179.5868   Anisotropy =   259.9432

      5  O    Isotropic =  -391.8431   Anisotropy =   554.3294

      6  O    Isotropic =  -395.6958   Anisotropy =   539.7032

      7  O    Isotropic =  -370.8120   Anisotropy =   473.7528

      8  O    Isotropic =  -370.9204   Anisotropy =   438.7090

      9  Cl   Isotropic =   605.6774   Anisotropy =   729.6696

     10  Cl   Isotropic =   622.5691   Anisotropy =   694.6560

     11  N    Isotropic =  -212.6563   Anisotropy =   332.9617

     12  O    Isotropic =  -400.3340   Anisotropy =   535.7364

     13  O    Isotropic =  -396.9043   Anisotropy =   515.3195

 The electronic state is 1-A.
 Alpha  occ. eigenvalues -- **********-427.60645-414.93561-414.93554-414.93545
 Alpha  occ. eigenvalues -- -100.53544-100.53530-100.52622 -99.98669 -92.14345
 Alpha  occ. eigenvalues --  -92.14318 -92.14312 -79.10273 -79.10246 -79.10121
 Alpha  occ. eigenvalues --  -79.10105 -79.10090 -20.90152 -18.79564 -18.79433
 Alpha  occ. eigenvalues --  -18.78221 -18.78123 -18.78112 -18.77987 -17.46629
 Alpha  occ. eigenvalues --  -17.46576 -17.46568 -14.19104 -14.17231 -14.17141
 Alpha  occ. eigenvalues --  -11.65091 -11.65028 -11.64558 -11.64504 -11.64471
 Alpha  occ. eigenvalues --   -9.11399  -9.11386  -9.10479  -6.95327  -6.95310
 Alpha  occ. eigenvalues --   -6.94519  -6.94512  -6.94510  -6.94494  -6.94327
 Alpha  occ. eigenvalues --   -6.93636  -6.93633  -3.19895  -3.19861  -3.19831
 Alpha  occ. eigenvalues --   -3.19583  -3.19559  -3.19530  -3.19179  -2.92917
 Alpha  occ. eigenvalues --   -1.86937  -1.86849  -1.86768  -1.13878  -1.12278
 Alpha  occ. eigenvalues --   -1.12176  -0.97670  -0.95949  -0.95842  -0.69551
 Alpha  occ. eigenvalues --   -0.68549  -0.67979  -0.58408  -0.58065  -0.56109
 Alpha  occ. eigenvalues --   -0.48901  -0.48239  -0.47827  -0.46481  -0.46282
 Alpha  occ. eigenvalues --   -0.45767  -0.45507  -0.45213  -0.45028  -0.37423
 Alpha  occ. eigenvalues --   -0.34203  -0.33560  -0.32861  -0.32229  -0.28951
 Alpha  occ. eigenvalues --   -0.28513  -0.27875  -0.27334  -0.26607  -0.25554
 Alpha  occ. eigenvalues --   -0.25048  -0.24333  -0.23873  -0.23646  -0.23194
 Alpha  occ. eigenvalues --   -0.22970  -0.22793  -0.22442  -0.22158  -0.20355
 Alpha virt. eigenvalues --   -0.13942  -0.11440  -0.09554  -0.09015  -0.08017
 Alpha virt. eigenvalues --    0.00516   0.01200   0.02258   0.03417   0.04288
 Alpha virt. eigenvalues --    0.04819   0.05073   0.05374   0.05424   0.07489

 Mulliken charges:
               1
     1  Pt   0.105338
     2  Cl  -0.414586
     3  N   -0.103488
     4  N   -0.087977
     5  O   -0.099495
     6  O   -0.107135
     7  O   -0.087476
     8  O   -0.075427
     9  Cl  -0.418719
    10  Cl  -0.401903
    11  N   -0.094555
    12  O   -0.115792
    13  O   -0.098784
 Sum of Mulliken charges =  -2.00000

 Dipole moment (field-independent basis, Debye):
    X=             -0.1503    Y=              2.5492    Z=              0.8024  Tot=              2.6767
 Quadrupole moment (field-independent basis, Debye-Ang):
   XX=           -154.3880   YY=           -152.5612   ZZ=           -147.1330
   XY=              0.0717   XZ=              1.0933   YZ=              2.8047

 Normal termination of Gaussian 09 at Sat Oct 30 05:59:23 2021.
