 Gaussian 09, Revision D.01,
 Gaussian 09:  EM64L-G09RevD.01 24-Apr-2013

 ----------------------------------------------------------------------
 #PBEPBE/gen scf=(maxcycles=200,conver=6) NMR=GIAO Scrf=(solvent=water)
 ----------------------------------------------------------------------

 ------------
 estrutura 13
 ------------
 Symbolic Z-matrix:
 Charge = -2 Multiplicity = 1

                         Standard orientation:
 ---------------------------------------------------------------------
 Center     Atomic      Atomic             Coordinates (Angstroms)
 Number     Number       Type             X           Y           Z
 ---------------------------------------------------------------------
      1         78           0       -0.000071   -0.000006    0.000000
      2         35           0       -1.828336    1.770804    0.000000
      3         35           0       -1.819346   -1.780658    0.000000
      4         35           0        1.819450    1.780711    0.000000
      5          7           0       -0.000043   -0.000009    2.128902
      6          7           0       -0.000043   -0.000009   -2.128902
      7          8           0       -0.000043    1.069374    2.717865
      8          8           0        0.000043   -1.069418    2.717798
      9          8           0       -0.000043    1.069374   -2.717865
     10          8           0        0.000043   -1.069418   -2.717798
     11         35           0        1.828407   -1.770820    0.000000
 ---------------------------------------------------------------------

 SCF Done:  E(RPBE-PBE) =  -27793.2730725     A.U. after   14 cycles

      1  Pt   Isotropic =    67.7976   Anisotropy =  2099.4504

      2  Br   Isotropic =  1567.6422   Anisotropy =  2059.8706

      3  Br   Isotropic =  1560.9156   Anisotropy =  2069.3680

      4  Br   Isotropic =  1560.7522   Anisotropy =  2069.5989

      5  N    Isotropic =  -207.3502   Anisotropy =   321.8683

      6  N    Isotropic =  -207.3502   Anisotropy =   321.8683

      7  O    Isotropic =  -424.3032   Anisotropy =   508.7578

      8  O    Isotropic =  -424.3139   Anisotropy =   508.7867

      9  O    Isotropic =  -424.3032   Anisotropy =   508.7578

     10  O    Isotropic =  -424.3139   Anisotropy =   508.7867

     11  Br   Isotropic =  1567.4588   Anisotropy =  2060.0631

 The electronic state is 1-A'.
 Alpha  occ. eigenvalues -- **********-478.58394-478.58393-478.58392-478.58391
 Alpha  occ. eigenvalues -- -427.60173-414.93083-414.93081-414.93072 -99.98192
 Alpha  occ. eigenvalues --  -92.13856 -92.13852 -92.13834 -79.09780 -79.09778
 Alpha  occ. eigenvalues --  -79.09646 -79.09623 -79.09622 -61.50224 -61.50223
 Alpha  occ. eigenvalues --  -61.50223 -61.50222 -55.68718 -55.68717 -55.68717
 Alpha  occ. eigenvalues --  -55.68716 -55.68406 -55.68406 -55.68406 -55.68406
 Alpha  occ. eigenvalues --  -55.68405 -55.68405 -55.68404 -55.68404 -20.89645
 Alpha  occ. eigenvalues --  -18.78096 -18.78096 -18.78096 -18.78096 -17.46100
 Alpha  occ. eigenvalues --  -17.46090 -17.46056 -14.17284 -14.17284 -11.64541
 Alpha  occ. eigenvalues --  -11.64538 -11.64056 -11.63986 -11.63983  -8.33068
 Alpha  occ. eigenvalues --   -8.33067  -8.33066  -8.33065  -6.23972  -6.23972
 Alpha  occ. eigenvalues --   -6.23971  -6.23970  -6.23070  -6.23070  -6.23069
 Alpha  occ. eigenvalues --   -6.23069  -6.23068  -6.23068  -6.23067  -6.23067
 Alpha  occ. eigenvalues --   -3.19358  -3.19344  -3.19317  -3.19064  -3.19045
 Alpha  occ. eigenvalues --   -3.19031  -3.18676  -2.92350  -2.44894  -2.44893
 Alpha  occ. eigenvalues --   -2.44892  -2.44891  -2.44667  -2.44667  -2.44665
 Alpha  occ. eigenvalues --   -2.44665  -2.44665  -2.44664  -2.44664  -2.44663
 Alpha  occ. eigenvalues --   -2.44003  -2.44002  -2.44001  -2.44001  -2.44001
 Alpha  occ. eigenvalues --   -2.44000  -2.43999  -2.43998  -1.86325  -1.86295
 Alpha  occ. eigenvalues --   -1.86187  -1.12233  -1.12140  -0.95806  -0.95791
 Alpha  occ. eigenvalues --   -0.66776  -0.65605  -0.65567  -0.65419  -0.58113
 Alpha  occ. eigenvalues --   -0.56154  -0.48020  -0.46574  -0.45869  -0.45733
 Alpha  occ. eigenvalues --   -0.45232  -0.45047  -0.36766  -0.34710  -0.33971
 Alpha  occ. eigenvalues --   -0.32950  -0.31978  -0.27930  -0.27822  -0.27468
 Alpha  occ. eigenvalues --   -0.27462  -0.26072  -0.24205  -0.23831  -0.23582
 Alpha  occ. eigenvalues --   -0.23013  -0.22878  -0.22531  -0.22359  -0.22208
 Alpha  occ. eigenvalues --   -0.21372  -0.20843  -0.20463
 Alpha virt. eigenvalues --   -0.15397  -0.12272  -0.09137  -0.08030  -0.00209
 Alpha virt. eigenvalues --    0.00378   0.00533   0.01396   0.02554   0.02609
 Alpha virt. eigenvalues --    0.03019   0.03032   0.04175   0.04734   0.04756

 Mulliken charges:
               1
     1  Pt  -0.423519
     2  Br  -0.283630
     3  Br  -0.283558
     4  Br  -0.283680
     5  N   -0.034384
     6  N   -0.034384
     7  O   -0.093291
     8  O   -0.093275
     9  O   -0.093291
    10  O   -0.093275
    11  Br  -0.283712
 Sum of Mulliken charges =  -2.00000

 Dipole moment (field-independent basis, Debye):
    X=             -0.0019    Y=             -0.0004    Z=              0.0000  Tot=              0.0020
 Quadrupole moment (field-independent basis, Debye-Ang):
   XX=           -166.1801   YY=           -173.7062   ZZ=           -174.3944
   XY=             -0.0107   XZ=              0.0000   YZ=              0.0000

 Normal termination of Gaussian 09 at Thu Mar 17 02:24:28 2022.
