 Gaussian 09, Revision D.01,
 Gaussian 09:  EM64L-G09RevD.01 24-Apr-2013

 ----------------------------------------------------------
 #PBEPBE/gen scf=maxcycle=200 NMR=GIAO Scrf=(solvent=water)
 ----------------------------------------------------------

 ------------
 estrutura 37
 ------------
 Symbolic Z-matrix:
 Charge = -2 Multiplicity = 1

                         Standard orientation:
 ---------------------------------------------------------------------
 Center     Atomic      Atomic             Coordinates (Angstroms)
 Number     Number       Type             X           Y           Z
 ---------------------------------------------------------------------
      1         78           0        0.000052    0.006148   -0.000303
      2          7           0        2.130171   -0.004749    0.032335
      3          8           0        2.720774    0.981996    0.438995
      4          8           0        2.717312   -1.008703   -0.340533
      5          7           0       -2.127939   -0.006042   -0.031781
      6          8           0       -2.733587   -0.415278    0.943427
      7          8           0       -2.693825    0.392947   -1.038603
      8         17           0       -0.015442   -2.173188    0.979993
      9         17           0       -0.066355    0.985116    2.179709
     10         17           0        0.032218    2.180601   -0.990701
     11         17           0        0.043398   -0.993218   -2.169386
 ---------------------------------------------------------------------

 SCF Done:  E(RPBE-PBE) =  -19361.3213126     A.U. after   20 cycles

      1  Pt   Isotropic =  -999.3139   Anisotropy =   860.9676

      2  N    Isotropic =  -204.6178   Anisotropy =   316.3577

      3  O    Isotropic =  -400.8968   Anisotropy =   508.8720

      4  O    Isotropic =  -403.8191   Anisotropy =   507.7123

      5  N    Isotropic =  -204.1535   Anisotropy =   315.2196

      6  O    Isotropic =  -399.8687   Anisotropy =   508.8869

      7  O    Isotropic =  -403.9876   Anisotropy =   505.1995

      8  Cl   Isotropic =   608.0085   Anisotropy =   723.3460

      9  Cl   Isotropic =   624.0215   Anisotropy =   702.8709

     10  Cl   Isotropic =   621.2623   Anisotropy =   706.9018

     11  Cl   Isotropic =   615.3488   Anisotropy =   713.5541

 The electronic state is 1-A.
 Alpha  occ. eigenvalues -- **********-427.61010-414.93922-414.93921-414.93898
 Alpha  occ. eigenvalues -- -100.54006-100.53999-100.53997-100.53985 -99.99022
 Alpha  occ. eigenvalues --  -92.14691 -92.14691 -92.14651 -79.10650 -79.10594
 Alpha  occ. eigenvalues --  -79.10466 -79.10452 -79.10452 -20.90486 -18.78310
 Alpha  occ. eigenvalues --  -18.78210 -18.78209 -18.78153 -17.46952 -17.46952
 Alpha  occ. eigenvalues --  -17.46866 -14.17388 -14.17315 -11.65485 -11.65345
 Alpha  occ. eigenvalues --  -11.64834 -11.64826 -11.64824  -9.11835  -9.11829
 Alpha  occ. eigenvalues --   -9.11826  -9.11815  -6.95795  -6.95794  -6.95786
 Alpha  occ. eigenvalues --   -6.95780  -6.94949  -6.94942  -6.94940  -6.94928
 Alpha  occ. eigenvalues --   -6.94927  -6.94919  -6.94919  -6.94904  -3.20239
 Alpha  occ. eigenvalues --   -3.20239  -3.20141  -3.19929  -3.19856  -3.19856
 Alpha  occ. eigenvalues --   -3.19474  -2.93165  -1.87127  -1.87124  -1.86947
 Alpha  occ. eigenvalues --   -1.12349  -1.12245  -0.95990  -0.95867  -0.70283
 Alpha  occ. eigenvalues --   -0.69152  -0.68849  -0.68835  -0.58218  -0.56235
 Alpha  occ. eigenvalues --   -0.48144  -0.46386  -0.46323  -0.45853  -0.45242
 Alpha  occ. eigenvalues --   -0.45177  -0.38579  -0.36082  -0.35299  -0.33427
 Alpha  occ. eigenvalues --   -0.33412  -0.29079  -0.29069  -0.28143  -0.27558
 Alpha  occ. eigenvalues --   -0.26559  -0.25715  -0.24634  -0.24625  -0.23978
 Alpha  occ. eigenvalues --   -0.23935  -0.23862  -0.23301  -0.22655  -0.22617
 Alpha  occ. eigenvalues --   -0.22487  -0.20408
 Alpha virt. eigenvalues --   -0.15215  -0.12156  -0.08678  -0.08642   0.00184
 Alpha virt. eigenvalues --    0.01267   0.01271   0.03316   0.03620   0.04389
 Alpha virt. eigenvalues --    0.04871   0.05166   0.05167   0.07028   0.07028

 Mulliken charges:
               1
     1  Pt  -0.090482
     2  N   -0.067326
     3  O   -0.113495
     4  O   -0.112940
     5  N   -0.066413
     6  O   -0.109568
     7  O   -0.114488
     8  Cl  -0.329808
     9  Cl  -0.332706
    10  Cl  -0.332227
    11  Cl  -0.330547
 Sum of Mulliken charges =  -2.00000

 Dipole moment (field-independent basis, Debye):
    X=             -0.0571    Y=              0.0041    Z=              0.0107  Tot=              0.0582
 Quadrupole moment (field-independent basis, Debye-Ang):
   XX=           -149.5112   YY=           -143.9240   ZZ=           -143.7682
   XY=             -0.0016   XZ=             -0.0927   YZ=              0.0225

 Normal termination of Gaussian 09 at Thu Mar 17 02:30:04 2022.
