 Gaussian 09, Revision D.01,
 Gaussian 09:  EM64L-G09RevD.01 24-Apr-2013

 ----------------------------------------------------------
 #PBEPBE/gen scf=maxcycle=200 NMR=GIAO Scrf=(solvent=water)
 ----------------------------------------------------------

 ------------
 estrutura 22
 ------------
 Symbolic Z-matrix:
 Charge = -2 Multiplicity = 1

                         Standard orientation:
 ---------------------------------------------------------------------
 Center     Atomic      Atomic             Coordinates (Angstroms)
 Number     Number       Type             X           Y           Z
 ---------------------------------------------------------------------
      1         78           0        0.000000    0.000000    0.201341
      2         35           0        0.000000    2.548055    0.205878
      3         17           0       -2.386917    0.000000    0.208009
      4         17           0        0.000000    0.000000    2.606085
      5         35           0        0.000000    0.000000   -2.328337
      6         17           0        2.386917    0.000000    0.208009
      7         35           0        0.000000   -2.548055    0.205878
 ---------------------------------------------------------------------

 SCF Done:  E(RPBE-PBE) =  -26194.8542121     A.U. after   16 cycles

      1  Pt   Isotropic =   650.7905   Anisotropy =   916.7536

      2  Br   Isotropic =  1228.6315   Anisotropy =  2601.0184

      3  Cl   Isotropic =   683.3911   Anisotropy =   571.4694

      4  Cl   Isotropic =   559.0055   Anisotropy =   767.8331

      5  Br   Isotropic =  1538.6650   Anisotropy =  2113.6237

      6  Cl   Isotropic =   683.3911   Anisotropy =   571.4694

      7  Br   Isotropic =  1228.6315   Anisotropy =  2601.0184

 The electronic state is 1-A1.
 Alpha  occ. eigenvalues -- **********-478.59018-478.58809-478.58808-427.60813
 Alpha  occ. eigenvalues -- -414.93725-414.93713-414.93702-100.54274-100.54274
 Alpha  occ. eigenvalues -- -100.54015 -99.98814 -92.14486 -92.14468 -92.14453
 Alpha  occ. eigenvalues --  -79.10437 -79.10403 -79.10255 -79.10249 -79.10241
 Alpha  occ. eigenvalues --  -61.50836 -61.50628 -61.50628 -55.69349 -55.69136
 Alpha  occ. eigenvalues --  -55.69136 -55.69012 -55.69010 -55.68806 -55.68806
 Alpha  occ. eigenvalues --  -55.68806 -55.68806 -20.90233 -17.46706 -17.46666
 Alpha  occ. eigenvalues --  -17.46633 -11.65219 -11.65131 -11.64574 -11.64565
 Alpha  occ. eigenvalues --  -11.64551  -9.12079  -9.12079  -9.11822  -8.33672
 Alpha  occ. eigenvalues --   -8.33463  -8.33463  -6.96068  -6.96068  -6.95794
 Alpha  occ. eigenvalues --   -6.95172  -6.95172  -6.95171  -6.95171  -6.94924
 Alpha  occ. eigenvalues --   -6.94923  -6.24626  -6.24400  -6.24400  -6.23649
 Alpha  occ. eigenvalues --   -6.23646  -6.23448  -6.23448  -6.23447  -6.23447
 Alpha  occ. eigenvalues --   -3.19991  -3.19954  -3.19920  -3.19632  -3.19612
 Alpha  occ. eigenvalues --   -3.19595  -3.19194  -2.92801  -2.45533  -2.45311
 Alpha  occ. eigenvalues --   -2.45311  -2.45287  -2.45284  -2.45071  -2.45071
 Alpha  occ. eigenvalues --   -2.45070  -2.45070  -2.44567  -2.44567  -2.44371
 Alpha  occ. eigenvalues --   -2.44371  -2.44371  -2.44370  -1.86772  -1.86657
 Alpha  occ. eigenvalues --   -1.86560  -0.70223  -0.68986  -0.68971  -0.66554
 Alpha  occ. eigenvalues --   -0.65954  -0.65786  -0.38175  -0.37291  -0.34864
 Alpha  occ. eigenvalues --   -0.34622  -0.34323  -0.33269  -0.29371  -0.28996
 Alpha  occ. eigenvalues --   -0.28775  -0.24398  -0.24394  -0.24169  -0.23558
 Alpha  occ. eigenvalues --   -0.23411  -0.23296  -0.23275  -0.23235  -0.23103
 Alpha  occ. eigenvalues --   -0.22109  -0.21773  -0.21413
 Alpha virt. eigenvalues --   -0.15610  -0.15269  -0.01034   0.00534   0.00800
 Alpha virt. eigenvalues --    0.01067   0.02789   0.02880   0.03010   0.03315
 Alpha virt. eigenvalues --    0.03493   0.05043   0.05096   0.05449   0.06465

 Mulliken charges:
               1
     1  Pt  -0.374253
     2  Br  -0.293909
     3  Cl  -0.258292
     4  Cl  -0.256477
     5  Br  -0.264868
     6  Cl  -0.258292
     7  Br  -0.293909
 Sum of Mulliken charges =  -2.00000

 Dipole moment (field-independent basis, Debye):
    X=              0.0000    Y=              0.0000    Z=             -2.3724  Tot=              2.3724
 Quadrupole moment (field-independent basis, Debye-Ang):
   XX=           -153.2873   YY=           -154.0412   ZZ=           -154.1663
   XY=              0.0000   XZ=              0.0000   YZ=              0.0000

 Normal termination of Gaussian 09 at Sat Oct 30 01:12:42 2021.
