 Gaussian 09, Revision D.01,
 Gaussian 09:  EM64L-G09RevD.01 24-Apr-2013

 ----------------------------------------------------------
 #PBEPBE/gen scf=maxcycle=200 NMR=GIAO Scrf=(solvent=water)
 ----------------------------------------------------------

 ------------
 estrutura 62
 ------------
 Symbolic Z-matrix:
 Charge = -2 Multiplicity = 1

                         Standard orientation:
 ---------------------------------------------------------------------
 Center     Atomic      Atomic             Coordinates (Angstroms)
 Number     Number       Type             X           Y           Z
 ---------------------------------------------------------------------
      1         78           0        0.000007    0.000028    0.000025
      2          7           0       -0.059783   -1.454919    1.567902
      3          8           0       -0.810625   -1.291817    2.512901
      4          8           0        0.672534   -2.427655    1.467817
      5          7           0       -0.116522    1.643512    1.369516
      6          8           0        0.660486    2.572406    1.210057
      7          8           0       -0.949413    1.628305    2.257676
      8          7           0        0.059758    1.455334   -1.567481
      9          7           0        0.116379   -1.643514   -1.369308
     10          8           0       -0.659353   -2.573236   -1.208329
     11          8           0        0.947734   -1.627477   -2.258897
     12          8           0       -0.672287    2.428257   -1.466727
     13          8           0        0.810276    1.292466   -2.512757
     14         35           0       -2.530126   -0.047466   -0.236576
     15         35           0        2.530293    0.047036    0.235998
 ---------------------------------------------------------------------

 SCF Done:  E(RPBE-PBE) =  -23067.7247682     A.U. after   20 cycles

      1  Pt   Isotropic = -1502.5640   Anisotropy =  1259.0763

      2  N    Isotropic =  -211.1111   Anisotropy =   331.1586

      3  O    Isotropic =  -406.5497   Anisotropy =   554.7689

      4  O    Isotropic =  -406.4535   Anisotropy =   513.8119

      5  N    Isotropic =  -209.9279   Anisotropy =   328.5432

      6  O    Isotropic =  -406.8060   Anisotropy =   499.7143

      7  O    Isotropic =  -407.9115   Anisotropy =   539.6213

      8  N    Isotropic =  -211.1242   Anisotropy =   331.1797

      9  N    Isotropic =  -209.9172   Anisotropy =   328.4993

     10  O    Isotropic =  -406.8717   Anisotropy =   499.8502

     11  O    Isotropic =  -407.9251   Anisotropy =   539.8185

     12  O    Isotropic =  -406.5144   Anisotropy =   513.7983

     13  O    Isotropic =  -406.5552   Anisotropy =   554.9047

     14  Br   Isotropic =  1572.2301   Anisotropy =  2156.8066

     15  Br   Isotropic =  1572.1308   Anisotropy =  2156.5824

 The electronic state is 1-A.
 Alpha  occ. eigenvalues -- **********-478.57920-478.57919-427.60038-414.92961
 Alpha  occ. eigenvalues -- -414.92945-414.92938 -99.98068 -92.13746 -92.13728
 Alpha  occ. eigenvalues --  -92.13698 -79.09661 -79.09634 -79.09526 -79.09504
 Alpha  occ. eigenvalues --  -79.09492 -61.49763 -61.49763 -55.68236 -55.68236
 Alpha  occ. eigenvalues --  -55.67956 -55.67956 -55.67950 -55.67950 -20.89556
 Alpha  occ. eigenvalues --  -18.78068 -18.78067 -18.78013 -18.78011 -18.77889
 Alpha  occ. eigenvalues --  -18.77889 -18.77816 -18.77814 -17.46038 -17.45999
 Alpha  occ. eigenvalues --  -17.45948 -14.17091 -14.17091 -14.17016 -14.17013
 Alpha  occ. eigenvalues --  -11.64462 -11.64405 -11.63984 -11.63924 -11.63893
 Alpha  occ. eigenvalues --   -8.32620  -8.32620  -6.23472  -6.23472  -6.22654
 Alpha  occ. eigenvalues --   -6.22654  -6.22641  -6.22641  -3.19282  -3.19254
 Alpha  occ. eigenvalues --   -3.19206  -3.18995  -3.18961  -3.18950  -3.18624
 Alpha  occ. eigenvalues --   -2.92368  -2.44411  -2.44411  -2.44206  -2.44205
 Alpha  occ. eigenvalues --   -2.44196  -2.44196  -2.43594  -2.43593  -2.43593
 Alpha  occ. eigenvalues --   -2.43593  -1.86433  -1.86318  -1.86220  -1.12324
 Alpha  occ. eigenvalues --   -1.12121  -1.12027  -1.11993  -0.96001  -0.95805
 Alpha  occ. eigenvalues --   -0.95746  -0.95584  -0.65917  -0.65211  -0.57982
 Alpha  occ. eigenvalues --   -0.57763  -0.56034  -0.55954  -0.48486  -0.47511
 Alpha  occ. eigenvalues --   -0.47163  -0.46712  -0.46532  -0.45496  -0.45355
 Alpha  occ. eigenvalues --   -0.45005  -0.44889  -0.44795  -0.44776  -0.44610
 Alpha  occ. eigenvalues --   -0.35824  -0.32771  -0.32492  -0.31254  -0.28773
 Alpha  occ. eigenvalues --   -0.28055  -0.27829  -0.27594  -0.26772  -0.26644
 Alpha  occ. eigenvalues --   -0.24312  -0.24259  -0.24191  -0.23790  -0.23258
 Alpha  occ. eigenvalues --   -0.22798  -0.22287  -0.21727  -0.21312  -0.20589
 Alpha  occ. eigenvalues --   -0.19866
 Alpha virt. eigenvalues --   -0.13770  -0.10497  -0.09194  -0.08680  -0.08097
 Alpha virt. eigenvalues --   -0.07708   0.00468   0.00896   0.01803   0.01838
 Alpha virt. eigenvalues --    0.03004   0.03019   0.04028   0.05375   0.05946

 Mulliken charges:
               1
     1  Pt  -0.337612
     2  N   -0.070703
     3  O   -0.101040
     4  O   -0.081679
     5  N   -0.073046
     6  O   -0.081896
     7  O   -0.097794
     8  N   -0.070806
     9  N   -0.073067
    10  O   -0.081810
    11  O   -0.097772
    12  O   -0.081725
    13  O   -0.100960
    14  Br  -0.325055
    15  Br  -0.325035
 Sum of Mulliken charges =  -2.00000

 Dipole moment (field-independent basis, Debye):
    X=              0.0004    Y=             -0.0013    Z=             -0.0012  Tot=              0.0018
 Quadrupole moment (field-independent basis, Debye-Ang):
   XX=           -167.9006   YY=           -173.1892   ZZ=           -167.9996
   XY=              0.6344   XZ=              5.3437   YZ=             -0.0661

 Normal termination of Gaussian 09 at Sat Oct 30 09:32:13 2021.
