 Gaussian 09, Revision D.01,
 Gaussian 09:  EM64L-G09RevD.01 24-Apr-2013

 ----------------------------------------------------------
 #PBEPBE/gen scf=maxcycle=200 NMR=GIAO Scrf=(solvent=water)
 ----------------------------------------------------------

 ------------
 estrutura 19
 ------------
 Symbolic Z-matrix:
 Charge = -2 Multiplicity = 1

                         Standard orientation:
 ---------------------------------------------------------------------
 Center     Atomic      Atomic             Coordinates (Angstroms)
 Number     Number       Type             X           Y           Z
 ---------------------------------------------------------------------
      1         78           0        0.000000    0.000000    0.311295
      2         17           0       -2.388070    0.000000    0.307008
      3         17           0        0.000000    1.702038    2.010063
      4         17           0        0.000000   -1.702038    2.010063
      5         17           0        2.388070    0.000000    0.307008
      6         35           0        0.000000   -1.790764   -1.472307
      7         35           0        0.000000    1.790764   -1.472307
 ---------------------------------------------------------------------

 SCF Done:  E(RPBE-PBE) =  -24086.8656545     A.U. after   15 cycles

      1  Pt   Isotropic =   403.8183   Anisotropy =   629.4270

      2  Cl   Isotropic =   649.8985   Anisotropy =   632.0890

      3  Cl   Isotropic =   529.3718   Anisotropy =   824.3780

      4  Cl   Isotropic =   529.3718   Anisotropy =   824.3780

      5  Cl   Isotropic =   649.8985   Anisotropy =   632.0890

      6  Br   Isotropic =  1449.3901   Anisotropy =  2265.8940

      7  Br   Isotropic =  1449.3901   Anisotropy =  2265.8940

 The electronic state is 1-A1.
 Alpha  occ. eigenvalues -- **********-478.59076-478.59075-427.61066-414.93974
 Alpha  occ. eigenvalues -- -414.93963-414.93962-100.54329-100.54329-100.54056
 Alpha  occ. eigenvalues -- -100.54056 -99.99065 -92.14732 -92.14715 -92.14714
 Alpha  occ. eigenvalues --  -79.10685 -79.10664 -79.10501 -79.10501 -79.10494
 Alpha  occ. eigenvalues --  -61.50894 -61.50894 -55.69409 -55.69409 -55.69069
 Alpha  occ. eigenvalues --  -55.69069 -55.69068 -55.69068 -20.90487 -17.46947
 Alpha  occ. eigenvalues --  -17.46911 -17.46908 -11.65464 -11.65411 -11.64816
 Alpha  occ. eigenvalues --  -11.64815 -11.64803  -9.12134  -9.12134  -9.11863
 Alpha  occ. eigenvalues --   -9.11863  -8.33731  -8.33730  -6.96124  -6.96124
 Alpha  occ. eigenvalues --   -6.95835  -6.95835  -6.95226  -6.95226  -6.95226
 Alpha  occ. eigenvalues --   -6.95226  -6.94966  -6.94966  -6.94965  -6.94965
 Alpha  occ. eigenvalues --   -6.24688  -6.24688  -6.23705  -6.23705  -6.23704
 Alpha  occ. eigenvalues --   -6.23704  -3.20237  -3.20200  -3.20198  -3.19875
 Alpha  occ. eigenvalues --   -3.19873  -3.19858  -3.19431  -2.93044  -2.45594
 Alpha  occ. eigenvalues --   -2.45594  -2.45347  -2.45347  -2.45346  -2.45345
 Alpha  occ. eigenvalues --   -2.44624  -2.44623  -2.44623  -2.44623  -1.86975
 Alpha  occ. eigenvalues --   -1.86869  -1.86860  -0.70436  -0.69088  -0.69033
 Alpha  occ. eigenvalues --   -0.68905  -0.66476  -0.66093  -0.38333  -0.37814
 Alpha  occ. eigenvalues --   -0.34985  -0.34971  -0.34707  -0.33601  -0.29517
 Alpha  occ. eigenvalues --   -0.29169  -0.29146  -0.24517  -0.24495  -0.24281
 Alpha  occ. eigenvalues --   -0.24076  -0.24001  -0.23910  -0.23335  -0.23331
 Alpha  occ. eigenvalues --   -0.23193  -0.22170  -0.22120  -0.21748
 Alpha virt. eigenvalues --   -0.15507  -0.15341  -0.00955   0.00775   0.00946
 Alpha virt. eigenvalues --    0.01134   0.03098   0.03176   0.03385   0.03407
 Alpha virt. eigenvalues --    0.03692   0.05401   0.05763   0.06129   0.06837

 Mulliken charges:
               1
     1  Pt  -0.355935
     2  Cl  -0.271985
     3  Cl  -0.284985
     4  Cl  -0.284985
     5  Cl  -0.271985
     6  Br  -0.265062
     7  Br  -0.265062
 Sum of Mulliken charges =  -2.00000

 Dipole moment (field-independent basis, Debye):
    X=              0.0000    Y=              0.0000    Z=             -3.5954  Tot=              3.5954
 Quadrupole moment (field-independent basis, Debye-Ang):
   XX=           -147.0149   YY=           -147.2904   ZZ=           -148.5298
   XY=              0.0000   XZ=              0.0000   YZ=              0.0000

 Normal termination of Gaussian 09 at Sat Oct 30 00:45:00 2021.
