 Gaussian 09, Revision D.01,
 Gaussian 09:  EM64L-G09RevD.01 24-Apr-2013

 ----------------------------------------------------------
 #PBEPBE/gen scf=maxcycle=200 NMR=GIAO Scrf=(solvent=water)
 ----------------------------------------------------------

 ------------
 estrutura 41
 ------------
 Symbolic Z-matrix:
 Charge = -2 Multiplicity = 1

                         Standard orientation:
 ---------------------------------------------------------------------
 Center     Atomic      Atomic             Coordinates (Angstroms)
 Number     Number       Type             X           Y           Z
 ---------------------------------------------------------------------
      1         78           0       -0.072859   -0.096029    0.000484
      2         17           0       -2.448165   -0.470786   -0.366872
      3          7           0       -0.327201    1.956796   -0.320419
      4          7           0        1.972787    0.232859    0.310829
      5          8           0        0.509176    2.525874   -0.998723
      6          8           0       -1.286130    2.514860    0.172582
      7          8           0        2.773025   -0.521665   -0.203125
      8          8           0        2.292877    1.179979    1.006414
      9         17           0        0.234132   -2.478154    0.378560
     10         17           0       -0.449775    0.195409    2.340076
     11         17           0        0.302180   -0.389392   -2.339280
 ---------------------------------------------------------------------

 SCF Done:  E(RPBE-PBE) =  -19361.3277096     A.U. after   20 cycles

      1  Pt   Isotropic = -1728.4309   Anisotropy =   603.9953

      2  Cl   Isotropic =   847.4865   Anisotropy =   346.5394

      3  N    Isotropic =  -181.4755   Anisotropy =   258.4766

      4  N    Isotropic =  -181.3138   Anisotropy =   258.0323

      5  O    Isotropic =  -376.9192   Anisotropy =   416.9651

      6  O    Isotropic =  -377.7999   Anisotropy =   439.8803

      7  O    Isotropic =  -377.9429   Anisotropy =   437.4435

      8  O    Isotropic =  -376.2332   Anisotropy =   414.1160

      9  Cl   Isotropic =   851.0486   Anisotropy =   341.4143

     10  Cl   Isotropic =   617.1539   Anisotropy =   707.5847

     11  Cl   Isotropic =   616.3782   Anisotropy =   710.4479

 The electronic state is 1-A.
 Alpha  occ. eigenvalues -- **********-427.61080-414.93989-414.93987-414.93983
 Alpha  occ. eigenvalues -- -100.53797-100.53797-100.52716-100.52713 -99.99096
 Alpha  occ. eigenvalues --  -92.14762 -92.14760 -92.14733 -79.10699 -79.10685
 Alpha  occ. eigenvalues --  -79.10547 -79.10524 -79.10522 -20.90565 -18.79757
 Alpha  occ. eigenvalues --  -18.79727 -18.79606 -18.79582 -17.47021 -17.47017
 Alpha  occ. eigenvalues --  -17.46972 -14.19285 -14.19261 -11.65499 -11.65475
 Alpha  occ. eigenvalues --  -11.64957 -11.64896 -11.64888  -9.11642  -9.11641
 Alpha  occ. eigenvalues --   -9.10566  -9.10563  -6.95581  -6.95581  -6.94754
 Alpha  occ. eigenvalues --   -6.94754  -6.94752  -6.94751  -6.94424  -6.94421
 Alpha  occ. eigenvalues --   -6.93725  -6.93723  -6.93711  -6.93708  -3.20300
 Alpha  occ. eigenvalues --   -3.20289  -3.20257  -3.19971  -3.19969  -3.19949
 Alpha  occ. eigenvalues --   -3.19568  -2.93269  -1.87207  -1.87198  -1.87136
 Alpha  occ. eigenvalues --   -1.14077  -1.13881  -0.97860  -0.97647  -0.69839
 Alpha  occ. eigenvalues --   -0.68737  -0.68190  -0.67856  -0.58616  -0.58574
 Alpha  occ. eigenvalues --   -0.49287  -0.48839  -0.47985  -0.47151  -0.46655
 Alpha  occ. eigenvalues --   -0.46415  -0.37716  -0.34460  -0.34442  -0.34217
 Alpha  occ. eigenvalues --   -0.33358  -0.30874  -0.29315  -0.28902  -0.28478
 Alpha  occ. eigenvalues --   -0.26043  -0.25655  -0.24696  -0.24494  -0.23570
 Alpha  occ. eigenvalues --   -0.23513  -0.23395  -0.23269  -0.22777  -0.22668
 Alpha  occ. eigenvalues --   -0.22567  -0.22379
 Alpha virt. eigenvalues --   -0.14276  -0.12892  -0.09752  -0.09579  -0.00078
 Alpha virt. eigenvalues --    0.01251   0.01975   0.02382   0.04016   0.04596
 Alpha virt. eigenvalues --    0.04693   0.04938   0.05133   0.07251   0.07456

 Mulliken charges:
               1
     1  Pt   0.044806
     2  Cl  -0.417879
     3  N   -0.055007
     4  N   -0.054897
     5  O   -0.087097
     6  O   -0.092966
     7  O   -0.093677
     8  O   -0.086890
     9  Cl  -0.419209
    10  Cl  -0.367723
    11  Cl  -0.369463
 Sum of Mulliken charges =  -2.00000

 Dipole moment (field-independent basis, Debye):
    X=              2.2251    Y=              2.9740    Z=             -0.0085  Tot=              3.7143
 Quadrupole moment (field-independent basis, Debye-Ang):
   XX=           -147.1936   YY=           -147.2836   ZZ=           -143.1524
   XY=             -0.4058   XZ=              1.4123   YZ=             -1.0756

 Normal termination of Gaussian 09 at Thu Jan  6 22:43:49 2022.
