 Gaussian 09, Revision D.01,
 Gaussian 09:  EM64L-G09RevD.01 24-Apr-2013

 ----------------------------------------------------------
 #PBEPBE/gen scf=maxcycle=200 NMR=GIAO Scrf=(solvent=water)
 ----------------------------------------------------------

 ------------
 estrutura 39
 ------------
 Symbolic Z-matrix:
 Charge = -2 Multiplicity = 1

                         Standard orientation:
 ---------------------------------------------------------------------
 Center     Atomic      Atomic             Coordinates (Angstroms)
 Number     Number       Type             X           Y           Z
 ---------------------------------------------------------------------
      1         78           0       -0.000714    0.291354    0.011206
      2         35           0       -1.789707   -1.497867   -0.068705
      3          7           0        0.024987    0.388699   -2.116432
      4          8           0       -1.036667    0.380210   -2.718669
      5          8           0        1.100179    0.461803   -2.689537
      6         35           0        1.798706   -1.488449   -0.044833
      7          7           0       -0.029190    0.220711    2.139967
      8          8           0       -0.082959    1.271806    2.757832
      9          8           0        0.008486   -0.863997    2.698918
     10         17           0        1.696211    1.988731    0.111390
     11         17           0       -1.704575    1.983683    0.038414
 ---------------------------------------------------------------------

 SCF Done:  E(RPBE-PBE) =  -23577.2970420     A.U. after   19 cycles

      1  Pt   Isotropic =  -462.4394   Anisotropy =  1493.2317

      2  Br   Isotropic =  1617.2830   Anisotropy =  2042.0129

      3  N    Isotropic =  -203.2427   Anisotropy =   314.2575

      4  O    Isotropic =  -412.4562   Anisotropy =   498.9697

      5  O    Isotropic =  -412.1856   Anisotropy =   499.8643

      6  Br   Isotropic =  1614.6932   Anisotropy =  2045.0160

      7  N    Isotropic =  -203.0022   Anisotropy =   314.3890

      8  O    Isotropic =  -407.8321   Anisotropy =   499.7107

      9  O    Isotropic =  -416.5626   Anisotropy =   500.1340

     10  Cl   Isotropic =   590.9736   Anisotropy =   741.3845

     11  Cl   Isotropic =   588.8631   Anisotropy =   744.6244

 The electronic state is 1-A.
 Alpha  occ. eigenvalues -- **********-478.58629-478.58624-427.60580-414.93487
 Alpha  occ. eigenvalues -- -414.93486-414.93479-100.53717-100.53712 -99.98595
 Alpha  occ. eigenvalues --  -92.14254 -92.14254 -92.14243 -79.10200 -79.10176
 Alpha  occ. eigenvalues --  -79.10033 -79.10032 -79.10030 -61.50458 -61.50454
 Alpha  occ. eigenvalues --  -55.68958 -55.68953 -55.68643 -55.68638 -55.68634
 Alpha  occ. eigenvalues --  -55.68629 -20.90055 -18.78149 -18.78133 -18.78130
 Alpha  occ. eigenvalues --  -18.78113 -17.46500 -17.46500 -17.46476 -14.17302
 Alpha  occ. eigenvalues --  -14.17302 -11.64997 -11.64935 -11.64415 -11.64414
 Alpha  occ. eigenvalues --  -11.64394  -9.11548  -9.11543  -8.33304  -8.33299
 Alpha  occ. eigenvalues --   -6.95495  -6.95490  -6.94670  -6.94665  -6.94647
 Alpha  occ. eigenvalues --   -6.94641  -6.24224  -6.24219  -6.23308  -6.23303
 Alpha  occ. eigenvalues --   -6.23286  -6.23281  -3.19774  -3.19773  -3.19734
 Alpha  occ. eigenvalues --   -3.19485  -3.19439  -3.19438  -3.19066  -2.92747
 Alpha  occ. eigenvalues --   -2.45142  -2.45137  -2.44916  -2.44911  -2.44899
 Alpha  occ. eigenvalues --   -2.44894  -2.44226  -2.44225  -2.44221  -2.44220
 Alpha  occ. eigenvalues --   -1.86671  -1.86666  -1.86632  -1.12273  -1.12183
 Alpha  occ. eigenvalues --   -0.95839  -0.95837  -0.69417  -0.68720  -0.66235
 Alpha  occ. eigenvalues --   -0.65781  -0.58141  -0.56179  -0.48051  -0.46285
 Alpha  occ. eigenvalues --   -0.46282  -0.45784  -0.45143  -0.45143  -0.37685
 Alpha  occ. eigenvalues --   -0.35406  -0.34615  -0.32955  -0.32936  -0.28305
 Alpha  occ. eigenvalues --   -0.28284  -0.28006  -0.27486  -0.26353  -0.24997
 Alpha  occ. eigenvalues --   -0.24035  -0.23979  -0.23729  -0.23602  -0.23215
 Alpha  occ. eigenvalues --   -0.22992  -0.22085  -0.22003  -0.21472  -0.20373
 Alpha virt. eigenvalues --   -0.15300  -0.12236  -0.08609  -0.08605  -0.00183
 Alpha virt. eigenvalues --    0.00688   0.01002   0.01701   0.03095   0.03124
 Alpha virt. eigenvalues --    0.03471   0.04456   0.04724   0.05375   0.06201

 Mulliken charges:
               1
     1  Pt  -0.388915
     2  Br  -0.261179
     3  N   -0.028933
     4  O   -0.102901
     5  O   -0.103840
     6  Br  -0.259466
     7  N   -0.027526
     8  O   -0.116406
     9  O   -0.095876
    10  Cl  -0.307178
    11  Cl  -0.307779
 Sum of Mulliken charges =  -2.00000

 Dipole moment (field-independent basis, Debye):
    X=              0.0049    Y=             -3.2477    Z=             -0.1311  Tot=              3.2503
 Quadrupole moment (field-independent basis, Debye-Ang):
   XX=           -156.7760   YY=           -157.8563   ZZ=           -162.0906
   XY=              0.0155   XZ=              0.0471   YZ=              0.2455

 Normal termination of Gaussian 09 at Sat Oct 30 05:20:43 2021.
