 Gaussian 09, Revision D.01,
 Gaussian 09:  EM64L-G09RevD.01 24-Apr-2013

 ----------------------------------------------------------
 #PBEPBE/gen scf=maxcycle=200 NMR=GIAO Scrf=(solvent=water)
 ----------------------------------------------------------

 ------------
 estrutura 32
 ------------
 Symbolic Z-matrix:
 Charge = -2 Multiplicity = 1

                         Standard orientation:
 ---------------------------------------------------------------------
 Center     Atomic      Atomic             Coordinates (Angstroms)
 Number     Number       Type             X           Y           Z
 ---------------------------------------------------------------------
      1         78           0        0.109000   -0.001029    0.290521
      2         35           0        0.285748   -1.778693   -1.502030
      3         35           0       -2.461787    0.008532    0.025407
      4         17           0       -0.084244   -1.691600    1.985656
      5         17           0       -0.065353    1.680127    1.995719
      6         35           0        0.297529    1.785773   -1.490653
      7          7           0        2.202102   -0.009918    0.536363
      8          8           0        2.767964   -1.083258    0.613438
      9          8           0        2.778821    1.058050    0.606075
 ---------------------------------------------------------------------

 SCF Done:  E(RPBE-PBE) =  -25940.0728042     A.U. after   20 cycles

      1  Pt   Isotropic =  -109.6631   Anisotropy =  1011.7633

      2  Br   Isotropic =  1600.4673   Anisotropy =  2035.1424

      3  Br   Isotropic =  2230.3170   Anisotropy =  1077.9715

      4  Cl   Isotropic =   575.4053   Anisotropy =   741.6434

      5  Cl   Isotropic =   579.0650   Anisotropy =   736.3871

      6  Br   Isotropic =  1594.8570   Anisotropy =  2042.6587

      7  N    Isotropic =  -182.6392   Anisotropy =   256.4035

      8  O    Isotropic =  -387.3883   Anisotropy =   422.4969

      9  O    Isotropic =  -387.3205   Anisotropy =   422.5439

 The electronic state is 1-A.
 Alpha  occ. eigenvalues -- **********-478.58757-478.58755-478.57493-427.60564
 Alpha  occ. eigenvalues -- -414.93473-414.93467-414.93461-100.53819-100.53807
 Alpha  occ. eigenvalues --  -99.98575 -92.14239 -92.14227 -92.14224 -79.10180
 Alpha  occ. eigenvalues --  -79.10162 -79.10020 -79.10010 -79.10003 -61.50582
 Alpha  occ. eigenvalues --  -61.50580 -61.49327 -55.69086 -55.69084 -55.68763
 Alpha  occ. eigenvalues --  -55.68761 -55.68759 -55.68757 -55.67789 -55.67525
 Alpha  occ. eigenvalues --  -55.67525 -20.90018 -18.79660 -18.79658 -17.46473
 Alpha  occ. eigenvalues --  -17.46449 -17.46440 -14.19192 -11.64962 -11.64909
 Alpha  occ. eigenvalues --  -11.64393 -11.64354 -11.64348  -9.11641  -9.11630
 Alpha  occ. eigenvalues --   -8.33424  -8.33422  -8.32169  -6.95595  -6.95583
 Alpha  occ. eigenvalues --   -6.94754  -6.94744  -6.94743  -6.94733  -6.24353
 Alpha  occ. eigenvalues --   -6.24350  -6.23418  -6.23416  -6.23408  -6.23406
 Alpha  occ. eigenvalues --   -6.22982  -6.22217  -6.22215  -3.19748  -3.19726
 Alpha  occ. eigenvalues --   -3.19703  -3.19435  -3.19403  -3.19391  -3.19014
 Alpha  occ. eigenvalues --   -2.92662  -2.45268  -2.45266  -2.45033  -2.45031
 Alpha  occ. eigenvalues --   -2.45026  -2.45023  -2.44339  -2.44339  -2.44337
 Alpha  occ. eigenvalues --   -2.44337  -2.43928  -2.43734  -2.43733  -2.43170
 Alpha  occ. eigenvalues --   -2.43170  -1.86604  -1.86539  -1.86521  -1.13936
 Alpha  occ. eigenvalues --   -0.97682  -0.69521  -0.68740  -0.66411  -0.65836
 Alpha  occ. eigenvalues --   -0.64864  -0.58380  -0.48609  -0.47729  -0.46484
 Alpha  occ. eigenvalues --   -0.37646  -0.35837  -0.34575  -0.33820  -0.33298
 Alpha  occ. eigenvalues --   -0.30851  -0.28950  -0.28669  -0.28373  -0.25246
 Alpha  occ. eigenvalues --   -0.24868  -0.23850  -0.23770  -0.23634  -0.23065
 Alpha  occ. eigenvalues --   -0.23015  -0.22789  -0.22453  -0.21552  -0.21545
 Alpha  occ. eigenvalues --   -0.21372
 Alpha virt. eigenvalues --   -0.15291  -0.13835  -0.09572  -0.00796   0.00720
 Alpha virt. eigenvalues --    0.00722   0.01285   0.03010   0.03060   0.03161
 Alpha virt. eigenvalues --    0.03191   0.03571   0.05367   0.05678   0.05697

 Mulliken charges:
               1
     1  Pt  -0.304477
     2  Br  -0.280036
     3  Br  -0.393836
     4  Cl  -0.287607
     5  Cl  -0.287256
     6  Br  -0.279281
     7  N   -0.016112
     8  O   -0.075916
     9  O   -0.075480
 Sum of Mulliken charges =  -2.00000

 Dipole moment (field-independent basis, Debye):
    X=              1.0925    Y=              0.0137    Z=             -3.0667  Tot=              3.2555
 Quadrupole moment (field-independent basis, Debye-Ang):
   XX=           -161.0210   YY=           -160.0823   ZZ=           -157.8114
   XY=             -0.0090   XZ=             -0.3886   YZ=              0.0244

 Normal termination of Gaussian 09 at Sat Oct 30 03:22:51 2021.
