 Gaussian 09, Revision D.01,
 Gaussian 09:  EM64L-G09RevD.01 24-Apr-2013

 ----------------------------------------------------------
 #PBEPBE/gen scf=maxcycle=200 NMR=GIAO Scrf=(solvent=water)
 ----------------------------------------------------------

 ------------
 estrutura 33
 ------------
 Symbolic Z-matrix:
 Charge = -2 Multiplicity = 1

                         Standard orientation:
 ---------------------------------------------------------------------
 Center     Atomic      Atomic             Coordinates (Angstroms)
 Number     Number       Type             X           Y           Z
 ---------------------------------------------------------------------
      1         78           0       -0.000033    0.136033    0.000021
      2         35           0       -2.543724    0.145859   -0.059926
      3         35           0        0.000388   -2.449742   -0.000045
      4         17           0        0.021234    0.119754   -2.388806
      5         35           0        2.543592    0.146458    0.059805
      6         17           0       -0.021146    0.119442    2.388832
      7          7           0       -0.000313    2.244062    0.000109
      8          8           0        0.667276    2.820443   -0.836574
      9          8           0       -0.667992    2.820118    0.836942
 ---------------------------------------------------------------------

 SCF Done:  E(RPBE-PBE) =  -25940.0727009     A.U. after   21 cycles

      1  Pt   Isotropic =  -128.5368   Anisotropy =   917.0851

      2  Br   Isotropic =  1385.0976   Anisotropy =  2375.2037

      3  Br   Isotropic =  2230.6071   Anisotropy =  1074.6096

      4  Cl   Isotropic =   669.8123   Anisotropy =   590.2058

      5  Br   Isotropic =  1384.9616   Anisotropy =  2375.3596

      6  Cl   Isotropic =   669.8237   Anisotropy =   590.2038

      7  N    Isotropic =  -182.0534   Anisotropy =   255.8838

      8  O    Isotropic =  -386.2639   Anisotropy =   425.8281

      9  O    Isotropic =  -386.2785   Anisotropy =   425.8376

 The electronic state is 1-A.
 Alpha  occ. eigenvalues -- **********-478.58639-478.58638-478.57484-427.60579
 Alpha  occ. eigenvalues -- -414.93495-414.93476-414.93475-100.53982-100.53982
 Alpha  occ. eigenvalues --  -99.98590 -92.14262 -92.14238 -92.14237 -79.10203
 Alpha  occ. eigenvalues --  -79.10170 -79.10034 -79.10026 -79.10017 -61.50464
 Alpha  occ. eigenvalues --  -61.50464 -61.49318 -55.68963 -55.68962 -55.68647
 Alpha  occ. eigenvalues --  -55.68647 -55.68644 -55.68643 -55.67780 -55.67516
 Alpha  occ. eigenvalues --  -55.67515 -20.90033 -18.79666 -18.79666 -17.46504
 Alpha  occ. eigenvalues --  -17.46451 -17.46451 -14.19213 -11.64996 -11.64906
 Alpha  occ. eigenvalues --  -11.64406 -11.64372 -11.64361  -9.11803  -9.11802
 Alpha  occ. eigenvalues --   -8.33305  -8.33304  -8.32159  -6.95771  -6.95771
 Alpha  occ. eigenvalues --   -6.94909  -6.94909  -6.94897  -6.94897  -6.24219
 Alpha  occ. eigenvalues --   -6.24219  -6.23305  -6.23305  -6.23296  -6.23296
 Alpha  occ. eigenvalues --   -6.22973  -6.22208  -6.22205  -3.19783  -3.19726
 Alpha  occ. eigenvalues --   -3.19717  -3.19448  -3.19432  -3.19390  -3.19030
 Alpha  occ. eigenvalues --   -2.92677  -2.45138  -2.45137  -2.44909  -2.44908
 Alpha  occ. eigenvalues --   -2.44902  -2.44901  -2.44230  -2.44230  -2.44230
 Alpha  occ. eigenvalues --   -2.44230  -2.43919  -2.43725  -2.43723  -2.43160
 Alpha  occ. eigenvalues --   -2.43160  -1.86678  -1.86531  -1.86502  -1.13956
 Alpha  occ. eigenvalues --   -0.97692  -0.69795  -0.68790  -0.66322  -0.65700
 Alpha  occ. eigenvalues --   -0.64849  -0.58391  -0.48617  -0.47746  -0.46493
 Alpha  occ. eigenvalues --   -0.37833  -0.35641  -0.34611  -0.33990  -0.33152
 Alpha  occ. eigenvalues --   -0.30836  -0.29006  -0.28935  -0.28278  -0.25336
 Alpha  occ. eigenvalues --   -0.24904  -0.23960  -0.23554  -0.23398  -0.23168
 Alpha  occ. eigenvalues --   -0.23063  -0.22785  -0.22365  -0.21701  -0.21644
 Alpha  occ. eigenvalues --   -0.21292
 Alpha virt. eigenvalues --   -0.15343  -0.13822  -0.09590  -0.00789   0.00475
 Alpha virt. eigenvalues --    0.01023   0.01156   0.02882   0.02944   0.02978
 Alpha virt. eigenvalues --    0.03409   0.03585   0.05228   0.05399   0.05658

 Mulliken charges:
               1
     1  Pt  -0.311036
     2  Br  -0.301921
     3  Br  -0.390667
     4  Cl  -0.265421
     5  Br  -0.301849
     6  Cl  -0.265433
     7  N   -0.006650
     8  O   -0.078510
     9  O   -0.078511
 Sum of Mulliken charges =  -2.00000

 Dipole moment (field-independent basis, Debye):
    X=              0.0002    Y=              0.7788    Z=              0.0001  Tot=              0.7788
 Quadrupole moment (field-independent basis, Debye-Ang):
   XX=           -158.3286   YY=           -161.1080   ZZ=           -158.5830
   XY=              0.0006   XZ=              1.5725   YZ=              0.0004

 Normal termination of Gaussian 09 at Sat Oct 30 03:40:39 2021.
