 Gaussian 09, Revision D.01,
 Gaussian 09:  EM64L-G09RevD.01 24-Apr-2013

 ----------------------------------------------------------
 #PBEPBE/gen scf=maxcycle=200 NMR=GIAO Scrf=(solvent=water)
 ----------------------------------------------------------

 ------------
 estrutura 25
 ------------
 Symbolic Z-matrix:
 Charge = -2 Multiplicity = 1

                         Standard orientation:
 ---------------------------------------------------------------------
 Center     Atomic      Atomic             Coordinates (Angstroms)
 Number     Number       Type             X           Y           Z
 ---------------------------------------------------------------------
      1         78           0       -0.083147    0.000000    0.000169
      2          7           0        2.016873   -0.000001   -0.002615
      3          8           0        2.593226   -1.069291   -0.002622
      4          8           0        2.593227    1.069289   -0.002586
      5         17           0        0.000322    0.000121    2.383521
      6         17           0       -0.182698   -2.391067    0.000230
      7         17           0       -0.005504   -0.000122   -2.383062
      8         17           0       -0.182696    2.391068   -0.000021
      9         17           0       -2.519086    0.000001    0.002086
 ---------------------------------------------------------------------

 SCF Done:  E(RPBE-PBE) =  -19616.1064640     A.U. after   19 cycles

      1  Pt   Isotropic =  -835.8912   Anisotropy =   810.2721

      2  N    Isotropic =  -173.8777   Anisotropy =   245.9513

      3  O    Isotropic =  -373.9924   Anisotropy =   418.4501

      4  O    Isotropic =  -373.9928   Anisotropy =   418.4494

      5  Cl   Isotropic =   705.1444   Anisotropy =   583.7802

      6  Cl   Isotropic =   474.8738   Anisotropy =   890.8882

      7  Cl   Isotropic =   704.7707   Anisotropy =   584.1938

      8  Cl   Isotropic =   474.8735   Anisotropy =   890.8888

      9  Cl   Isotropic =   888.4951   Anisotropy =   274.6884

 The electronic state is 1-A.
 Alpha  occ. eigenvalues -- **********-427.61132-414.94042-414.94038-414.94022
 Alpha  occ. eigenvalues -- -100.54349-100.54347-100.53937-100.53937-100.52800
 Alpha  occ. eigenvalues --  -99.99140 -92.14809 -92.14799 -92.14778 -79.10764
 Alpha  occ. eigenvalues --  -79.10727 -79.10579 -79.10571 -79.10570 -20.90589
 Alpha  occ. eigenvalues --  -18.79857 -18.79857 -17.47052 -17.47036 -17.46989
 Alpha  occ. eigenvalues --  -14.19610 -11.65581 -11.65485 -11.64926 -11.64924
 Alpha  occ. eigenvalues --  -11.64912  -9.12168  -9.12165  -9.11761  -9.11761
 Alpha  occ. eigenvalues --   -9.10636  -6.96130  -6.96127  -6.95740  -6.95740
 Alpha  occ. eigenvalues --   -6.95279  -6.95277  -6.95263  -6.95261  -6.94866
 Alpha  occ. eigenvalues --   -6.94866  -6.94847  -6.94847  -6.94506  -6.93795
 Alpha  occ. eigenvalues --   -6.93773  -3.20349  -3.20327  -3.20275  -3.20005
 Alpha  occ. eigenvalues --   -3.19977  -3.19948  -3.19556  -2.93224  -1.87157
 Alpha  occ. eigenvalues --   -1.87129  -1.87035  -1.14286  -0.97973  -0.70515
 Alpha  occ. eigenvalues --   -0.69233  -0.69142  -0.68740  -0.67973  -0.58688
 Alpha  occ. eigenvalues --   -0.48910  -0.48058  -0.46693  -0.38599  -0.36687
 Alpha  occ. eigenvalues --   -0.35361  -0.34601  -0.34073  -0.31855  -0.29401
 Alpha  occ. eigenvalues --   -0.29305  -0.28892  -0.26166  -0.25258  -0.24619
 Alpha  occ. eigenvalues --   -0.24516  -0.24509  -0.23564  -0.23358  -0.23319
 Alpha  occ. eigenvalues --   -0.23108  -0.22992  -0.22605  -0.21927
 Alpha virt. eigenvalues --   -0.15277  -0.13670  -0.09830  -0.00389   0.01265
 Alpha virt. eigenvalues --    0.01376   0.02106   0.03566   0.04161   0.04448
 Alpha virt. eigenvalues --    0.04711   0.04901   0.06931   0.07043   0.07210

 Mulliken charges:
               1
     1  Pt  -0.154537
     2  N    0.006157
     3  O   -0.098892
     4  O   -0.098892
     5  Cl  -0.327798
     6  Cl  -0.306290
     7  Cl  -0.327510
     8  Cl  -0.306291
     9  Cl  -0.385947
 Sum of Mulliken charges =  -2.00000

 Dipole moment (field-independent basis, Debye):
    X=              2.9340    Y=              0.0000    Z=             -0.0065  Tot=              2.9340
 Quadrupole moment (field-independent basis, Debye-Ang):
   XX=           -142.1383   YY=           -141.5051   ZZ=           -136.8559
   XY=              0.0000   XZ=             -0.0008   YZ=              0.0000

 Normal termination of Gaussian 09 at Sat Oct 30 01:41:36 2021.
