 Gaussian 09, Revision D.01,
 Gaussian 09:  EM64L-G09RevD.01 24-Apr-2013

 ----------------------------------------------------------
 #PBEPBE/gen scf=maxcycle=200 NMR=GIAO Scrf=(solvent=water)
 ----------------------------------------------------------

 ------------
 estrutura 65
 ------------
 Symbolic Z-matrix:
 Charge = -2 Multiplicity = 1

                         Standard orientation:
 ---------------------------------------------------------------------
 Center     Atomic      Atomic             Coordinates (Angstroms)
 Number     Number       Type             X           Y           Z
 ---------------------------------------------------------------------
      1         78           0       -0.070911    0.163964    0.009079
      2          7           0       -0.107169    0.111827    2.135653
      3          8           0       -0.743709    0.998575    2.690722
      4          8           0        0.458084   -0.773322    2.751562
      5          7           0       -1.996909    1.054032    0.104117
      6          7           0       -0.205307    0.223980   -2.114214
      7          8           0        0.795328    0.238784   -2.807018
      8          8           0       -1.334605    0.243024   -2.586902
      9          8           0       -2.927522    0.408605    0.538950
     10          8           0       -2.088760    2.210247   -0.266223
     11          7           0        0.823650    2.075968    0.048914
     12          8           0        1.348438    2.443700    1.082939
     13          8           0        0.808221    2.733640   -0.973266
     14         35           0        2.324092   -0.780115   -0.057830
     15         35           0       -1.026739   -2.222053   -0.095758
 ---------------------------------------------------------------------

 SCF Done:  E(RPBE-PBE) =  -23067.7292915     A.U. after   23 cycles

      1  Pt   Isotropic = -2274.1401   Anisotropy =   840.9964

      2  N    Isotropic =  -217.8165   Anisotropy =   344.0695

      3  O    Isotropic =  -391.1063   Anisotropy =   484.5304

      4  O    Isotropic =  -410.7351   Anisotropy =   534.3174

      5  N    Isotropic =  -191.1286   Anisotropy =   288.2070

      6  N    Isotropic =  -217.2465   Anisotropy =   344.0098

      7  O    Isotropic =  -391.5736   Anisotropy =   508.6636

      8  O    Isotropic =  -406.1859   Anisotropy =   503.0156

      9  O    Isotropic =  -352.2903   Anisotropy =   423.2867

     10  O    Isotropic =  -347.6232   Anisotropy =   429.1271

     11  N    Isotropic =  -200.1883   Anisotropy =   299.0502

     12  O    Isotropic =  -374.5207   Anisotropy =   483.8921

     13  O    Isotropic =  -355.6841   Anisotropy =   456.6828

     14  Br   Isotropic =  2196.4081   Anisotropy =  1158.7822

     15  Br   Isotropic =  2229.7950   Anisotropy =  1131.6318

 The electronic state is 1-A.
 Alpha  occ. eigenvalues -- **********-478.57255-478.57250-427.60367-414.93290
 Alpha  occ. eigenvalues -- -414.93278-414.93276 -99.98401 -92.14076 -92.14050
 Alpha  occ. eigenvalues --  -92.14047 -79.09991 -79.09968 -79.09846 -79.09843
 Alpha  occ. eigenvalues --  -79.09830 -61.49103 -61.49098 -55.67546 -55.67546
 Alpha  occ. eigenvalues --  -55.67310 -55.67305 -55.67304 -55.67296 -20.89898
 Alpha  occ. eigenvalues --  -18.79256 -18.79225 -18.79185 -18.79073 -18.78120
 Alpha  occ. eigenvalues --  -18.78112 -18.77933 -18.77895 -17.46373 -17.46324
 Alpha  occ. eigenvalues --  -17.46317 -14.18611 -14.18505 -14.17087 -14.17084
 Alpha  occ. eigenvalues --  -11.64804 -11.64750 -11.64291 -11.64285 -11.64254
 Alpha  occ. eigenvalues --   -8.31958  -8.31953  -6.22735  -6.22727  -6.22035
 Alpha  occ. eigenvalues --   -6.22027  -6.22023  -6.22006  -3.19619  -3.19579
 Alpha  occ. eigenvalues --   -3.19574  -3.19324  -3.19312  -3.19307  -3.18968
 Alpha  occ. eigenvalues --   -2.92733  -2.43692  -2.43688  -2.43516  -2.43514
 Alpha  occ. eigenvalues --   -2.43505  -2.43501  -2.42994  -2.42994  -2.42979
 Alpha  occ. eigenvalues --   -2.42978  -1.86759  -1.86685  -1.86648  -1.13630
 Alpha  occ. eigenvalues --   -1.13444  -1.12149  -1.12081  -0.97464  -0.97301
 Alpha  occ. eigenvalues --   -0.95815  -0.95797  -0.65273  -0.64665  -0.58158
 Alpha  occ. eigenvalues --   -0.58053  -0.57914  -0.56133  -0.48989  -0.48690
 Alpha  occ. eigenvalues --   -0.48041  -0.47994  -0.47194  -0.46316  -0.46084
 Alpha  occ. eigenvalues --   -0.46044  -0.45577  -0.45139  -0.45025  -0.44873
 Alpha  occ. eigenvalues --   -0.33212  -0.32851  -0.32376  -0.32153  -0.31515
 Alpha  occ. eigenvalues --   -0.28793  -0.28427  -0.27668  -0.27148  -0.26339
 Alpha  occ. eigenvalues --   -0.25421  -0.24886  -0.24400  -0.23930  -0.22949
 Alpha  occ. eigenvalues --   -0.22485  -0.22288  -0.21681  -0.21585  -0.21138
 Alpha  occ. eigenvalues --   -0.20162
 Alpha virt. eigenvalues --   -0.13009  -0.11507  -0.09382  -0.09212  -0.08829
 Alpha virt. eigenvalues --   -0.08300   0.00556   0.01014   0.01750   0.02841
 Alpha virt. eigenvalues --    0.03571   0.03658   0.03999   0.05125   0.05244

 Mulliken charges:
               1
     1  Pt  -0.288415
     2  N   -0.035798
     3  O   -0.109488
     4  O   -0.110282
     5  N   -0.013656
     6  N   -0.044815
     7  O   -0.096141
     8  O   -0.110218
     9  O   -0.091069
    10  O   -0.105711
    11  N   -0.050523
    12  O   -0.091148
    13  O   -0.091232
    14  Br  -0.381381
    15  Br  -0.380122
 Sum of Mulliken charges =  -2.00000

 Dipole moment (field-independent basis, Debye):
    X=             -0.0056    Y=              0.3473    Z=              0.0089  Tot=              0.3475
 Quadrupole moment (field-independent basis, Debye-Ang):
   XX=           -169.2133   YY=           -168.0908   ZZ=           -171.0700
   XY=              0.7652   XZ=             -0.3309   YZ=              1.3541

 Normal termination of Gaussian 09 at Sat Oct 30 10:32:37 2021.
