 Gaussian 09, Revision D.01,
 Gaussian 09:  EM64L-G09RevD.01 24-Apr-2013

 ----------------------------------------------------------
 #PBEPBE/gen scf=maxcycle=200 NMR=GIAO Scrf=(solvent=water)
 ----------------------------------------------------------

 ------------
 estrutura 27
 ------------
 Symbolic Z-matrix:
 Charge = -2 Multiplicity = 1

                         Standard orientation:
 ---------------------------------------------------------------------
 Center     Atomic      Atomic             Coordinates (Angstroms)
 Number     Number       Type             X           Y           Z
 ---------------------------------------------------------------------
      1         78           0       -0.226433   -0.086910    0.013652
      2         17           0       -2.621235   -0.221881    0.151981
      3         17           0       -0.091467   -2.520337    0.057209
      4         35           0        2.295572    0.051077   -0.132859
      5          7           0       -0.354275    1.999182   -0.013868
      6          8           0        0.348447    2.630764    0.751456
      7          8           0       -1.132554    2.516989   -0.790955
      8         17           0       -0.335684   -0.150627   -2.372061
      9         17           0       -0.123995   -0.059217    2.398066
 ---------------------------------------------------------------------

 SCF Done:  E(RPBE-PBE) =  -21724.0965959     A.U. after   22 cycles

      1  Pt   Isotropic =  -612.4675   Anisotropy =  1197.9503

      2  Cl   Isotropic =   538.0145   Anisotropy =   818.7012

      3  Cl   Isotropic =   874.4971   Anisotropy =   297.5513

      4  Br   Isotropic =  1488.5696   Anisotropy =  2228.9003

      5  N    Isotropic =  -175.6178   Anisotropy =   245.6619

      6  O    Isotropic =  -389.1763   Anisotropy =   417.5515

      7  O    Isotropic =  -384.7141   Anisotropy =   417.9500

      8  Cl   Isotropic =   626.8184   Anisotropy =   676.2279

      9  Cl   Isotropic =   622.3140   Anisotropy =   675.7900

 The electronic state is 1-A.
 Alpha  occ. eigenvalues -- **********-478.58872-427.61069-414.93979-414.93968
 Alpha  occ. eigenvalues -- -414.93967-100.54080-100.54073-100.53934-100.52770
 Alpha  occ. eigenvalues --  -99.99076 -92.14741 -92.14729 -92.14724 -79.10688
 Alpha  occ. eigenvalues --  -79.10669 -79.10521 -79.10509 -79.10503 -61.50697
 Alpha  occ. eigenvalues --  -55.69202 -55.68877 -55.68873 -20.90523 -18.79776
 Alpha  occ. eigenvalues --  -18.79751 -17.46980 -17.46953 -17.46944 -14.19467
 Alpha  occ. eigenvalues --  -11.65483 -11.65431 -11.64890 -11.64848 -11.64842
 Alpha  occ. eigenvalues --   -9.11904  -9.11896  -9.11756  -9.10606  -8.33539
 Alpha  occ. eigenvalues --   -6.95876  -6.95866  -6.95712  -6.95008  -6.95000
 Alpha  occ. eigenvalues --   -6.94997  -6.94989  -6.94869  -6.94858  -6.94472
 Alpha  occ. eigenvalues --   -6.93759  -6.93755  -6.24472  -6.23530  -6.23521
 Alpha  occ. eigenvalues --   -3.20269  -3.20231  -3.20227  -3.19934  -3.19913
 Alpha  occ. eigenvalues --   -3.19890  -3.19500  -2.93155  -2.45386  -2.45150
 Alpha  occ. eigenvalues --   -2.45142  -2.44451  -2.44450  -1.87096  -1.87035
 Alpha  occ. eigenvalues --   -1.86987  -1.14093  -0.97827  -0.70153  -0.68968
 Alpha  occ. eigenvalues --   -0.68879  -0.67992  -0.66163  -0.58685  -0.48860
 Alpha  occ. eigenvalues --   -0.47935  -0.46616  -0.38277  -0.36387  -0.35070
 Alpha  occ. eigenvalues --   -0.34439  -0.33825  -0.31692  -0.29256  -0.29053
 Alpha  occ. eigenvalues --   -0.28778  -0.25592  -0.25063  -0.24344  -0.24068
 Alpha  occ. eigenvalues --   -0.24002  -0.23481  -0.23354  -0.23303  -0.23093
 Alpha  occ. eigenvalues --   -0.22560  -0.22131  -0.22036
 Alpha virt. eigenvalues --   -0.15354  -0.13651  -0.09711  -0.00536   0.00912
 Alpha virt. eigenvalues --    0.01183   0.01705   0.03360   0.03516   0.03552
 Alpha virt. eigenvalues --    0.04255   0.04790   0.06355   0.06372   0.06969

 Mulliken charges:
               1
     1  Pt  -0.213848
     2  Cl  -0.329933
     3  Cl  -0.386876
     4  Br  -0.274737
     5  N   -0.022000
     6  O   -0.079740
     7  O   -0.088875
     8  Cl  -0.299336
     9  Cl  -0.304655
 Sum of Mulliken charges =  -2.00000

 Dipole moment (field-independent basis, Debye):
    X=              2.4191    Y=              2.9582    Z=             -0.1843  Tot=              3.8258
 Quadrupole moment (field-independent basis, Debye-Ang):
   XX=           -146.2600   YY=           -148.4972   ZZ=           -145.6294
   XY=             -0.5284   XZ=             -1.5981   YZ=             -0.0564

 Normal termination of Gaussian 09 at Sat Oct 30 02:07:16 2021.
