 Gaussian 09, Revision D.01,
 Gaussian 09:  EM64L-G09RevD.01 24-Apr-2013

 ----------------------------------------------------------
 #PBEPBE/gen scf=maxcycle=200 NMR=GIAO Scrf=(solvent=water)
 ----------------------------------------------------------

 ------------
 estrutura 49
 ------------
 Symbolic Z-matrix:
 Charge = -2 Multiplicity = 1

                         Standard orientation:
 ---------------------------------------------------------------------
 Center     Atomic      Atomic             Coordinates (Angstroms)
 Number     Number       Type             X           Y           Z
 ---------------------------------------------------------------------
      1         78           0        0.000049   -0.128495   -0.116960
      2          7           0       -0.132081   -2.234257   -0.024591
      3          7           0        0.110574   -0.269594   -2.220612
      4          8           0        0.603028   -2.877413   -0.749355
      5          8           0       -0.936706   -2.739553    0.729364
      6          8           0        0.869777    0.461799   -2.823430
      7          8           0       -0.600197   -1.096101   -2.764940
      8         35           0        0.154696    2.444650   -0.237986
      9         35           0       -2.532032    0.052191   -0.282526
     10         35           0        2.532928   -0.288275    0.058021
     11         35           0       -0.136748    0.007425    2.454097
 ---------------------------------------------------------------------

 SCF Done:  E(RPBE-PBE) =  -27793.2778839     A.U. after   20 cycles

      1  Pt   Isotropic =  -769.6778   Anisotropy =   889.9672

      2  N    Isotropic =  -185.7947   Anisotropy =   267.1840

      3  N    Isotropic =  -187.3515   Anisotropy =   268.8262

      4  O    Isotropic =  -383.3665   Anisotropy =   406.6592

      5  O    Isotropic =  -388.6149   Anisotropy =   429.1819

      6  O    Isotropic =  -391.0728   Anisotropy =   437.2669

      7  O    Isotropic =  -388.2512   Anisotropy =   414.9909

      8  Br   Isotropic =  2253.0005   Anisotropy =  1023.9626

      9  Br   Isotropic =  1537.0689   Anisotropy =  2150.0510

     10  Br   Isotropic =  1539.6098   Anisotropy =  2141.2282

     11  Br   Isotropic =  2260.5772   Anisotropy =  1011.0754

 The electronic state is 1-A.
 Alpha  occ. eigenvalues -- **********-478.58287-478.58283-478.57386-478.57365
 Alpha  occ. eigenvalues -- -427.60243-414.93156-414.93154-414.93142 -99.98264
 Alpha  occ. eigenvalues --  -92.13934 -92.13930 -92.13896 -79.09863 -79.09835
 Alpha  occ. eigenvalues --  -79.09719 -79.09695 -79.09694 -61.50121 -61.50118
 Alpha  occ. eigenvalues --  -61.49225 -61.49203 -55.68607 -55.68603 -55.68307
 Alpha  occ. eigenvalues --  -55.68307 -55.68304 -55.68303 -55.67683 -55.67661
 Alpha  occ. eigenvalues --  -55.67426 -55.67421 -55.67404 -55.67400 -20.89725
 Alpha  occ. eigenvalues --  -18.79519 -18.79493 -18.79373 -18.79371 -17.46188
 Alpha  occ. eigenvalues --  -17.46181 -17.46117 -14.18933 -14.18932 -11.64645
 Alpha  occ. eigenvalues --  -11.64583 -11.64133 -11.64073 -11.64068  -8.32968
 Alpha  occ. eigenvalues --   -8.32965  -8.32071  -8.32049  -6.23851  -6.23847
 Alpha  occ. eigenvalues --   -6.22981  -6.22980  -6.22979  -6.22976  -6.22877
 Alpha  occ. eigenvalues --   -6.22854  -6.22129  -6.22116  -6.22107  -6.22095
 Alpha  occ. eigenvalues --   -3.19440  -3.19435  -3.19379  -3.19130  -3.19129
 Alpha  occ. eigenvalues --   -3.19120  -3.18766  -2.92443  -2.44780  -2.44776
 Alpha  occ. eigenvalues --   -2.44559  -2.44557  -2.44556  -2.44554  -2.43919
 Alpha  occ. eigenvalues --   -2.43918  -2.43916  -2.43915  -2.43826  -2.43804
 Alpha  occ. eigenvalues --   -2.43638  -2.43629  -2.43616  -2.43607  -2.43079
 Alpha  occ. eigenvalues --   -2.43079  -2.43057  -2.43057  -1.86412  -1.86401
 Alpha  occ. eigenvalues --   -1.86285  -1.13919  -1.13664  -0.97664  -0.97410
 Alpha  occ. eigenvalues --   -0.66422  -0.65459  -0.64931  -0.64648  -0.58222
 Alpha  occ. eigenvalues --   -0.58197  -0.49027  -0.48482  -0.47678  -0.46912
 Alpha  occ. eigenvalues --   -0.46451  -0.46206  -0.36104  -0.33388  -0.33356
 Alpha  occ. eigenvalues --   -0.33111  -0.32496  -0.29699  -0.29143  -0.28335
 Alpha  occ. eigenvalues --   -0.27461  -0.25271  -0.25145  -0.23815  -0.23595
 Alpha  occ. eigenvalues --   -0.22778  -0.22722  -0.22405  -0.22306  -0.22060
 Alpha  occ. eigenvalues --   -0.21347  -0.21108  -0.20992
 Alpha virt. eigenvalues --   -0.14564  -0.13104  -0.09495  -0.09375  -0.00480
 Alpha virt. eigenvalues --    0.00388   0.00893   0.01364   0.02826   0.02855
 Alpha virt. eigenvalues --    0.02885   0.03222   0.03430   0.05076   0.05435

 Mulliken charges:
               1
     1  Pt  -0.292097
     2  N   -0.002720
     3  N   -0.003511
     4  O   -0.074930
     5  O   -0.077741
     6  O   -0.078804
     7  O   -0.075692
     8  Br  -0.386542
     9  Br  -0.311359
    10  Br  -0.311798
    11  Br  -0.384806
 Sum of Mulliken charges =  -2.00000

 Dipole moment (field-independent basis, Debye):
    X=              0.0104    Y=             -0.6985    Z=             -0.5909  Tot=              0.9150
 Quadrupole moment (field-independent basis, Debye-Ang):
   XX=           -170.3331   YY=           -172.1602   ZZ=           -171.8471
   XY=             -1.7265   XZ=              1.8590   YZ=             -0.5270

 Normal termination of Gaussian 09 at Thu Jan  6 22:58:10 2022.
