 Gaussian 09, Revision D.01,
 Gaussian 09:  EM64L-G09RevD.01 24-Apr-2013

 ----------------------------------------------------------
 #PBEPBE/gen scf=maxcycle=200 NMR=GIAO Scrf=(solvent=water)
 ----------------------------------------------------------

 ------------
 estrutura 58
 ------------
 Symbolic Z-matrix:
 Charge = -2 Multiplicity = 1

                         Standard orientation:
 ---------------------------------------------------------------------
 Center     Atomic      Atomic             Coordinates (Angstroms)
 Number     Number       Type             X           Y           Z
 ---------------------------------------------------------------------
      1         78           0       -0.037739    0.185464   -0.071871
      2          7           0        1.105752    1.967972   -0.152598
      3          8           0        2.024652    2.107288    0.629296
      4          8           0        0.793314    2.800794   -0.982290
      5          7           0       -1.777407    1.380773   -0.087388
      6          8           0       -1.746975    2.398900    0.583291
      7          8           0       -2.733064    1.043304   -0.754425
      8         17           0       -0.067174    0.114224   -2.498536
      9          7           0       -0.077954    0.244498    2.032584
     10          8           0       -1.176372    0.276281    2.561871
     11          8           0        0.963835    0.239460    2.655032
     12         35           0       -1.419623   -1.987235    0.050741
     13         35           0        2.114759   -1.226735   -0.108150
 ---------------------------------------------------------------------

 SCF Done:  E(RPBE-PBE) =  -23322.5187848     A.U. after   23 cycles

      1  Pt   Isotropic = -2015.8059   Anisotropy =   484.3305

      2  N    Isotropic =  -190.2501   Anisotropy =   279.7719

      3  O    Isotropic =  -364.9757   Anisotropy =   498.2652

      4  O    Isotropic =  -362.8207   Anisotropy =   454.2102

      5  N    Isotropic =  -194.2565   Anisotropy =   283.7952

      6  O    Isotropic =  -363.9497   Anisotropy =   409.1486

      7  O    Isotropic =  -374.4744   Anisotropy =   453.3809

      8  Cl   Isotropic =   859.4028   Anisotropy =   314.9936

      9  N    Isotropic =  -190.6472   Anisotropy =   281.0457

     10  O    Isotropic =  -382.5611   Anisotropy =   457.1071

     11  O    Isotropic =  -373.5729   Anisotropy =   491.4018

     12  Br   Isotropic =  2214.2031   Anisotropy =  1154.8639

     13  Br   Isotropic =  2153.5561   Anisotropy =  1226.0080

 The electronic state is 1-A.
 Alpha  occ. eigenvalues -- **********-478.57286-478.57241-427.60444-414.93359
 Alpha  occ. eigenvalues -- -414.93358-414.93348-100.52510 -99.98471 -92.14139
 Alpha  occ. eigenvalues --  -92.14127 -92.14116 -79.10064 -79.10044 -79.09916
 Alpha  occ. eigenvalues --  -79.09910 -79.09901 -61.49130 -61.49085 -55.67579
 Alpha  occ. eigenvalues --  -55.67537 -55.67333 -55.67331 -55.67290 -55.67282
 Alpha  occ. eigenvalues --  -20.89954 -18.79460 -18.79372 -18.79324 -18.79239
 Alpha  occ. eigenvalues --  -18.79213 -18.79001 -17.46414 -17.46395 -17.46369
 Alpha  occ. eigenvalues --  -14.18705 -14.18694 -14.18677 -11.64867 -11.64816
 Alpha  occ. eigenvalues --  -11.64342 -11.64332 -11.64299  -9.10372  -8.31981
 Alpha  occ. eigenvalues --   -8.31937  -6.94215  -6.93531  -6.93528  -6.22764
 Alpha  occ. eigenvalues --   -6.22728  -6.22047  -6.22042  -6.22007  -6.21985
 Alpha  occ. eigenvalues --   -3.19676  -3.19656  -3.19618  -3.19375  -3.19361
 Alpha  occ. eigenvalues --   -3.19350  -3.19007  -2.92730  -2.43721  -2.43683
 Alpha  occ. eigenvalues --   -2.43538  -2.43535  -2.43502  -2.43487  -2.43007
 Alpha  occ. eigenvalues --   -2.43007  -2.42957  -2.42956  -1.86723  -1.86690
 Alpha  occ. eigenvalues --   -1.86601  -1.13775  -1.13530  -1.13437  -0.97599
 Alpha  occ. eigenvalues --   -0.97335  -0.97183  -0.68085  -0.65173  -0.64595
 Alpha  occ. eigenvalues --   -0.58143  -0.58140  -0.58036  -0.49244  -0.48712
 Alpha  occ. eigenvalues --   -0.48325  -0.47581  -0.47372  -0.46424  -0.46119
 Alpha  occ. eigenvalues --   -0.46085  -0.46001  -0.33806  -0.33360  -0.33288
 Alpha  occ. eigenvalues --   -0.32779  -0.32646  -0.29272  -0.29001  -0.28792
 Alpha  occ. eigenvalues --   -0.27844  -0.26011  -0.25072  -0.24650  -0.23666
 Alpha  occ. eigenvalues --   -0.23439  -0.23268  -0.22565  -0.22504  -0.21881
 Alpha  occ. eigenvalues --   -0.21823  -0.21434  -0.21176
 Alpha virt. eigenvalues --   -0.13124  -0.12731  -0.09491  -0.09433  -0.09132
 Alpha virt. eigenvalues --   -0.00104   0.01010   0.01383   0.02383   0.03334
 Alpha virt. eigenvalues --    0.03494   0.03611   0.04128   0.04984   0.06381

 Mulliken charges:
               1
     1  Pt  -0.162892
     2  N   -0.041743
     3  O   -0.088495
     4  O   -0.081323
     5  N   -0.022631
     6  O   -0.095156
     7  O   -0.097963
     8  Cl  -0.420106
     9  N   -0.044963
    10  O   -0.077771
    11  O   -0.079605
    12  Br  -0.393210
    13  Br  -0.394142
 Sum of Mulliken charges =  -2.00000

 Dipole moment (field-independent basis, Debye):
    X=              0.0615    Y=              0.6820    Z=              2.2492  Tot=              2.3511
 Quadrupole moment (field-independent basis, Debye-Ang):
   XX=           -165.7207   YY=           -163.0253   ZZ=           -163.8867
   XY=              0.0008   XZ=             -1.7647   YZ=             -0.2461

 Normal termination of Gaussian 09 at Sat Oct 30 07:40:17 2021.
