 Gaussian 09, Revision D.01,
 Gaussian 09:  EM64L-G09RevD.01 24-Apr-2013

 ----------------------------------------------------------
 #PBEPBE/gen scf=maxcycle=200 NMR=GIAO Scrf=(solvent=water)
 ----------------------------------------------------------

 ------------
 estrutura 56
 ------------
 Symbolic Z-matrix:
 Charge = -2 Multiplicity = 1

                         Standard orientation:
 ---------------------------------------------------------------------
 Center     Atomic      Atomic             Coordinates (Angstroms)
 Number     Number       Type             X           Y           Z
 ---------------------------------------------------------------------
      1         78           0       -0.011632   -0.005592   -0.142679
      2          7           0        0.881782    1.585279    0.902026
      3          8           0        2.085415    1.586977    1.057503
      4          8           0        0.147172    2.463805    1.316133
      5          7           0       -1.544017   -0.012093    1.286745
      6          8           0       -1.204759    0.063815    2.456061
      7          8           0       -2.700420   -0.088506    0.926973
      8         17           0       -1.215534    1.619326   -1.488761
      9         17           0       -1.055883   -1.833381   -1.354127
     10         17           0        1.767963    0.007056   -1.793820
     11          7           0        1.009003   -1.430930    1.021839
     12          8           0        0.338274   -2.306593    1.539115
     13          8           0        2.214149   -1.349579    1.139056
 ---------------------------------------------------------------------

 SCF Done:  E(RPBE-PBE) =  -19106.5445545     A.U. after   21 cycles

      1  Pt   Isotropic = -2406.5675   Anisotropy =   514.4343

      2  N    Isotropic =  -187.4426   Anisotropy =   276.2159

      3  O    Isotropic =  -363.4088   Anisotropy =   504.1059

      4  O    Isotropic =  -367.0083   Anisotropy =   457.3530

      5  N    Isotropic =  -190.4402   Anisotropy =   279.6394

      6  O    Isotropic =  -364.3885   Anisotropy =   409.1378

      7  O    Isotropic =  -374.8645   Anisotropy =   459.5082

      8  Cl   Isotropic =   841.2382   Anisotropy =   363.7608

      9  Cl   Isotropic =   844.2902   Anisotropy =   360.7806

     10  Cl   Isotropic =   825.3723   Anisotropy =   383.7240

     11  N    Isotropic =  -188.3235   Anisotropy =   276.6098

     12  O    Isotropic =  -369.0450   Anisotropy =   458.2899

     13  O    Isotropic =  -363.8031   Anisotropy =   503.5100

 The electronic state is 1-A.
 Alpha  occ. eigenvalues -- **********-427.60843-414.93761-414.93750-414.93749
 Alpha  occ. eigenvalues -- -100.52546-100.52538-100.52533 -99.98867 -92.14540
 Alpha  occ. eigenvalues --  -92.14516 -92.14515 -79.10467 -79.10444 -79.10312
 Alpha  occ. eigenvalues --  -79.10306 -79.10294 -20.90355 -18.79500 -18.79441
 Alpha  occ. eigenvalues --  -18.79427 -18.79240 -18.79188 -18.79173 -17.46824
 Alpha  occ. eigenvalues --  -17.46781 -17.46776 -14.18864 -14.18810 -14.18794
 Alpha  occ. eigenvalues --  -11.65284 -11.65227 -11.64738 -11.64726 -11.64689
 Alpha  occ. eigenvalues --   -9.10411  -9.10403  -9.10395  -6.94250  -6.94243
 Alpha  occ. eigenvalues --   -6.94241  -6.93571  -6.93569  -6.93563  -6.93562
 Alpha  occ. eigenvalues --   -6.93561  -6.93539  -3.20089  -3.20063  -3.20030
 Alpha  occ. eigenvalues --   -3.19770  -3.19767  -3.19748  -3.19391  -2.93126
 Alpha  occ. eigenvalues --   -1.87121  -1.87072  -1.86999  -1.13856  -1.13601
 Alpha  occ. eigenvalues --   -1.13551  -0.97675  -0.97355  -0.97340  -0.68636
 Alpha  occ. eigenvalues --   -0.67806  -0.67732  -0.58363  -0.58271  -0.58211
 Alpha  occ. eigenvalues --   -0.49363  -0.48844  -0.48501  -0.47722  -0.47536
 Alpha  occ. eigenvalues --   -0.46510  -0.46167  -0.46159  -0.46076  -0.34243
 Alpha  occ. eigenvalues --   -0.34101  -0.33812  -0.33248  -0.33152  -0.30057
 Alpha  occ. eigenvalues --   -0.29034  -0.28911  -0.27886  -0.26186  -0.25156
 Alpha  occ. eigenvalues --   -0.24788  -0.24005  -0.23763  -0.23648  -0.23120
 Alpha  occ. eigenvalues --   -0.23077  -0.22630  -0.22469  -0.22344  -0.21959
 Alpha virt. eigenvalues --   -0.12815  -0.12623  -0.09565  -0.09525  -0.09163
 Alpha virt. eigenvalues --    0.00278   0.01915   0.02024   0.03045   0.04722
 Alpha virt. eigenvalues --    0.04728   0.04849   0.05293   0.05324   0.07463

 Mulliken charges:
               1
     1  Pt   0.165151
     2  N   -0.088784
     3  O   -0.089619
     4  O   -0.085043
     5  N   -0.066587
     6  O   -0.093739
     7  O   -0.105094
     8  Cl  -0.455186
     9  Cl  -0.455753
    10  Cl  -0.461798
    11  N   -0.088942
    12  O   -0.086172
    13  O   -0.088434
 Sum of Mulliken charges =  -2.00000

 Dipole moment (field-independent basis, Debye):
    X=              0.6461    Y=              0.2037    Z=              4.1984  Tot=              4.2527
 Quadrupole moment (field-independent basis, Debye-Ang):
   XX=           -153.6497   YY=           -149.5429   ZZ=           -151.3464
   XY=             -0.1316   XZ=             -0.4746   YZ=             -0.0945

 Normal termination of Gaussian 09 at Sat Oct 30 06:49:29 2021.
