 Gaussian 09, Revision D.01,
 Gaussian 09:  EM64L-G09RevD.01 24-Apr-2013

 ----------------------------------------------------------
 #PBEPBE/gen scf=maxcycle=200 NMR=GIAO Scrf=(solvent=water)
 ----------------------------------------------------------

 ------------
 estrutura 40
 ------------
 Symbolic Z-matrix:
 Charge = -2 Multiplicity = 1

                         Standard orientation:
 ---------------------------------------------------------------------
 Center     Atomic      Atomic             Coordinates (Angstroms)
 Number     Number       Type             X           Y           Z
 ---------------------------------------------------------------------
      1         78           0        0.000017    0.000049    0.000066
      2         35           0        2.545242   -0.000209    0.000253
      3          7           0        0.000329    2.129443   -0.000778
      4          8           0        0.693165    2.717731   -0.815448
      5          8           0       -0.692332    2.718785    0.813283
      6          7           0       -0.000364   -2.129499    0.000661
      7          8           0       -0.693294   -2.718763   -0.813192
      8          8           0        0.692640   -2.717814    0.815192
      9         17           0        0.000625   -0.001361   -2.388967
     10         17           0       -0.000849    0.001076    2.389110
     11         35           0       -2.545204    0.000264   -0.000409
 ---------------------------------------------------------------------

 SCF Done:  E(RPBE-PBE) =  -23577.2969605     A.U. after   19 cycles

      1  Pt   Isotropic =  -465.2895   Anisotropy =  1410.6832

      2  Br   Isotropic =  1422.3904   Anisotropy =  2362.2640

      3  N    Isotropic =  -203.1477   Anisotropy =   314.3319

      4  O    Isotropic =  -412.4268   Anisotropy =   500.7698

      5  O    Isotropic =  -412.3948   Anisotropy =   500.7580

      6  N    Isotropic =  -203.1663   Anisotropy =   314.3531

      7  O    Isotropic =  -412.3359   Anisotropy =   500.7526

      8  O    Isotropic =  -412.4891   Anisotropy =   500.7780

      9  Cl   Isotropic =   675.0625   Anisotropy =   599.2908

     10  Cl   Isotropic =   675.1104   Anisotropy =   599.2556

     11  Br   Isotropic =  1422.4863   Anisotropy =  2362.0972

 The electronic state is 1-A.
 Alpha  occ. eigenvalues -- **********-478.58556-478.58555-427.60610-414.93524
 Alpha  occ. eigenvalues -- -414.93510-414.93508-100.53838-100.53838 -99.98626
 Alpha  occ. eigenvalues --  -92.14291 -92.14279 -92.14272 -79.10235 -79.10203
 Alpha  occ. eigenvalues --  -79.10063 -79.10062 -79.10062 -61.50385 -61.50384
 Alpha  occ. eigenvalues --  -55.68880 -55.68880 -55.68571 -55.68570 -55.68563
 Alpha  occ. eigenvalues --  -55.68563 -20.90085 -18.78130 -18.78129 -18.78128
 Alpha  occ. eigenvalues --  -18.78127 -17.46547 -17.46516 -17.46503 -14.17309
 Alpha  occ. eigenvalues --  -14.17308 -11.65040 -11.64954 -11.64447 -11.64440
 Alpha  occ. eigenvalues --  -11.64427  -9.11670  -9.11670  -8.33229  -8.33228
 Alpha  occ. eigenvalues --   -6.95631  -6.95631  -6.94785  -6.94785  -6.94760
 Alpha  occ. eigenvalues --   -6.94760  -6.24137  -6.24136  -6.23238  -6.23238
 Alpha  occ. eigenvalues --   -6.23218  -6.23218  -3.19828  -3.19786  -3.19763
 Alpha  occ. eigenvalues --   -3.19513  -3.19485  -3.19450  -3.19098  -2.92778
 Alpha  occ. eigenvalues --   -2.45058  -2.45057  -2.44834  -2.44834  -2.44820
 Alpha  occ. eigenvalues --   -2.44819  -2.44160  -2.44159  -2.44159  -2.44159
 Alpha  occ. eigenvalues --   -1.86771  -1.86660  -1.86633  -1.12281  -1.12191
 Alpha  occ. eigenvalues --   -0.95840  -0.95838  -0.69689  -0.68709  -0.66215
 Alpha  occ. eigenvalues --   -0.65657  -0.58155  -0.56185  -0.48060  -0.46337
 Alpha  occ. eigenvalues --   -0.46248  -0.45791  -0.45159  -0.45132  -0.37855
 Alpha  occ. eigenvalues --   -0.35239  -0.34664  -0.33320  -0.32629  -0.28762
 Alpha  occ. eigenvalues --   -0.28060  -0.28012  -0.27492  -0.26360  -0.25095
 Alpha  occ. eigenvalues --   -0.24060  -0.23918  -0.23835  -0.23198  -0.23173
 Alpha  occ. eigenvalues --   -0.22983  -0.22339  -0.21954  -0.21591  -0.20367
 Alpha virt. eigenvalues --   -0.15346  -0.12208  -0.08701  -0.08529  -0.00128
 Alpha virt. eigenvalues --    0.00570   0.01029   0.01726   0.02893   0.03032
 Alpha virt. eigenvalues --    0.03161   0.04510   0.05097   0.05370   0.06292

 Mulliken charges:
               1
     1  Pt  -0.409710
     2  Br  -0.274320
     3  N   -0.022324
     4  O   -0.104695
     5  O   -0.104713
     6  N   -0.022337
     7  O   -0.104670
     8  O   -0.104748
     9  Cl  -0.289046
    10  Cl  -0.289171
    11  Br  -0.274268
 Sum of Mulliken charges =  -2.00000

 Dipole moment (field-independent basis, Debye):
    X=             -0.0005    Y=              0.0004    Z=             -0.0006  Tot=              0.0009
 Quadrupole moment (field-independent basis, Debye-Ang):
   XX=           -156.4601   YY=           -162.1062   ZZ=           -157.1506
   XY=             -0.0009   XZ=              0.0023   YZ=             -0.0002

 Normal termination of Gaussian 09 at Sat Oct 30 05:39:23 2021.
