 Gaussian 09, Revision D.01,
 Gaussian 09:  EM64L-G09RevD.01 24-Apr-2013

 ----------------------------------------------------------
 #PBEPBE/gen scf=maxcycle=200 NMR=GIAO Scrf=(solvent=water)
 ----------------------------------------------------------

 ------------
 estrutura 11
 ------------
 Symbolic Z-matrix:
 Charge = -2 Multiplicity = 1

                         Standard orientation:
 ---------------------------------------------------------------------
 Center     Atomic      Atomic             Coordinates (Angstroms)
 Number     Number       Type             X           Y           Z
 ---------------------------------------------------------------------
      1         78           0        0.000000    0.000000    0.000000
      2         35           0        0.000000    0.000000    2.497266
      3         35           0        0.000000    2.497266    0.000000
      4         35           0        2.497266    0.000000    0.000000
      5         35           0        0.000000    0.000000   -2.497266
      6         35           0        0.000000   -2.497266    0.000000
      7         35           0       -2.497266    0.000000    0.000000
 ---------------------------------------------------------------------

 SCF Done:  E(RPBE-PBE) =  -32518.8117615     A.U. after   14 cycles

      1  Pt   Isotropic =  1973.7803   Anisotropy =     0.0019

      2  Br   Isotropic =  1608.0476   Anisotropy =  1944.7712

      3  Br   Isotropic =  1608.0460   Anisotropy =  1944.7734

      4  Br   Isotropic =  1608.0481   Anisotropy =  1944.7706

      5  Br   Isotropic =  1608.0476   Anisotropy =  1944.7712

      6  Br   Isotropic =  1608.0460   Anisotropy =  1944.7734

      7  Br   Isotropic =  1608.0481   Anisotropy =  1944.7706

 Unable to determine electronic state:  an orbital has unidentified symmetry.
 Alpha  occ. eigenvalues -- **********-478.58468-478.58468-478.58468-478.58468
 Alpha  occ. eigenvalues -- -478.58468-478.58467-427.60213-414.93113-414.93113
 Alpha  occ. eigenvalues -- -414.93113 -99.98234 -92.13888 -92.13888 -92.13888
 Alpha  occ. eigenvalues --  -79.09828 -79.09828 -79.09668 -79.09668 -79.09668
 Alpha  occ. eigenvalues --  -61.50305 -61.50305 -61.50305 -61.50305 -61.50305
 Alpha  occ. eigenvalues --  -61.50305 -55.68804 -55.68804 -55.68804 -55.68804
 Alpha  occ. eigenvalues --  -55.68804 -55.68804 -55.68483 -55.68483 -55.68483
 Alpha  occ. eigenvalues --  -55.68483 -55.68483 -55.68483 -55.68483 -55.68483
 Alpha  occ. eigenvalues --  -55.68483 -55.68483 -55.68483 -55.68483 -20.89668
 Alpha  occ. eigenvalues --  -17.46104 -17.46104 -17.46104 -11.64586 -11.64586
 Alpha  occ. eigenvalues --  -11.64015 -11.64015 -11.64015  -8.33159  -8.33159
 Alpha  occ. eigenvalues --   -8.33159  -8.33159  -8.33159  -8.33159  -6.24085
 Alpha  occ. eigenvalues --   -6.24085  -6.24085  -6.24085  -6.24085  -6.24085
 Alpha  occ. eigenvalues --   -6.23150  -6.23150  -6.23150  -6.23150  -6.23150
 Alpha  occ. eigenvalues --   -6.23150  -6.23150  -6.23150  -6.23150  -6.23150
 Alpha  occ. eigenvalues --   -6.23150  -6.23150  -3.19378  -3.19378  -3.19378
 Alpha  occ. eigenvalues --   -3.19063  -3.19063  -3.19063  -3.18668  -2.92365
 Alpha  occ. eigenvalues --   -2.45006  -2.45006  -2.45006  -2.45005  -2.45005
 Alpha  occ. eigenvalues --   -2.45004  -2.44767  -2.44766  -2.44766  -2.44766
 Alpha  occ. eigenvalues --   -2.44766  -2.44766  -2.44766  -2.44766  -2.44766
 Alpha  occ. eigenvalues --   -2.44765  -2.44765  -2.44765  -2.44078  -2.44078
 Alpha  occ. eigenvalues --   -2.44078  -2.44078  -2.44078  -2.44078  -2.44078
 Alpha  occ. eigenvalues --   -2.44078  -2.44078  -2.44078  -2.44078  -2.44078
 Alpha  occ. eigenvalues --   -1.86283  -1.86283  -1.86283  -0.67754  -0.65795
 Alpha  occ. eigenvalues --   -0.65795  -0.65670  -0.65670  -0.65670  -0.37266
 Alpha  occ. eigenvalues --   -0.37266  -0.34467  -0.34467  -0.34467  -0.32886
 Alpha  occ. eigenvalues --   -0.28348  -0.28348  -0.28348  -0.23002  -0.23002
 Alpha  occ. eigenvalues --   -0.23002  -0.22739  -0.22739  -0.22739  -0.22721
 Alpha  occ. eigenvalues --   -0.22721  -0.22721  -0.20677  -0.20677  -0.20677
 Alpha virt. eigenvalues --   -0.14512  -0.14512  -0.01085   0.00564   0.00564
 Alpha virt. eigenvalues --    0.00564   0.02590   0.02590   0.02770   0.02770
 Alpha virt. eigenvalues --    0.02770   0.04663   0.04663   0.04663   0.05301

 Mulliken charges:
               1
     1  Pt  -0.300989
     2  Br  -0.283169
     3  Br  -0.283169
     4  Br  -0.283169
     5  Br  -0.283169
     6  Br  -0.283169
     7  Br  -0.283169
 Sum of Mulliken charges =  -2.00000

 Dipole moment (field-independent basis, Debye):
    X=              0.0000    Y=              0.0000    Z=              0.0000  Tot=              0.0000
 Quadrupole moment (field-independent basis, Debye-Ang):
   XX=           -172.8112   YY=           -172.8112   ZZ=           -172.8112
   XY=              0.0000   XZ=              0.0000   YZ=              0.0000

 Normal termination of Gaussian 09 at Fri Oct 29 23:31:53 2021.
