 Gaussian 09, Revision D.01,
 Gaussian 09:  EM64L-G09RevD.01 24-Apr-2013

 ----------------------------------------------------------
 #PBEPBE/gen scf=maxcycle=200 NMR=GIAO Scrf=(solvent=water)
 ----------------------------------------------------------

 ------------
 estrutura 36
 ------------
 Symbolic Z-matrix:
 Charge = -2 Multiplicity = 1

                         Standard orientation:
 ---------------------------------------------------------------------
 Center     Atomic      Atomic             Coordinates (Angstroms)
 Number     Number       Type             X           Y           Z
 ---------------------------------------------------------------------
      1         78           0        0.000027   -0.000035   -0.122473
      2         35           0        1.748063   -1.850960   -0.114947
      3         35           0       -0.000372   -0.000170    2.461344
      4         35           0        1.828848    1.771510   -0.113069
      5         35           0       -1.828961   -1.771267   -0.113749
      6          7           0        0.000509    0.000079   -2.232388
      7          8           0        1.070857   -0.016934   -2.810337
      8          8           0       -1.069514    0.017080   -2.810956
      9         35           0       -1.748047    1.850915   -0.115294
 ---------------------------------------------------------------------

 SCF Done:  E(RPBE-PBE) =  -30156.0491680     A.U. after   20 cycles

      1  Pt   Isotropic =   411.5360   Anisotropy =  1571.4889

      2  Br   Isotropic =  1491.3654   Anisotropy =  2168.9131

      3  Br   Isotropic =  2308.7987   Anisotropy =   916.6057

      4  Br   Isotropic =  1482.8041   Anisotropy =  2181.1754

      5  Br   Isotropic =  1482.9835   Anisotropy =  2180.9005

      6  N    Isotropic =  -182.6313   Anisotropy =   258.8175

      7  O    Isotropic =  -402.6516   Anisotropy =   414.7444

      8  O    Isotropic =  -402.6238   Anisotropy =   414.7265

      9  Br   Isotropic =  1491.2850   Anisotropy =  2168.9932

 The electronic state is 1-A.
 Alpha  occ. eigenvalues -- **********-478.58519-478.58519-478.58516-478.58515
 Alpha  occ. eigenvalues -- -478.57490-427.60167-414.93074-414.93073-414.93067
 Alpha  occ. eigenvalues --  -99.98180 -92.13844 -92.13838 -92.13825 -79.09773
 Alpha  occ. eigenvalues --  -79.09768 -79.09630 -79.09614 -79.09611 -61.50345
 Alpha  occ. eigenvalues --  -61.50345 -61.50342 -61.50341 -61.49323 -55.68843
 Alpha  occ. eigenvalues --  -55.68843 -55.68840 -55.68839 -55.68529 -55.68529
 Alpha  occ. eigenvalues --  -55.68525 -55.68525 -55.68525 -55.68525 -55.68522
 Alpha  occ. eigenvalues --  -55.68521 -55.67786 -55.67521 -55.67520 -20.89618
 Alpha  occ. eigenvalues --  -18.79519 -18.79519 -17.46070 -17.46057 -17.46034
 Alpha  occ. eigenvalues --  -14.19084 -11.64522 -11.64514 -11.64009 -11.63963
 Alpha  occ. eigenvalues --  -11.63954  -8.33186  -8.33186  -8.33182  -8.33181
 Alpha  occ. eigenvalues --   -8.32164  -6.24098  -6.24098  -6.24095  -6.24094
 Alpha  occ. eigenvalues --   -6.23188  -6.23188  -6.23185  -6.23184  -6.23178
 Alpha  occ. eigenvalues --   -6.23178  -6.23174  -6.23174  -6.22980  -6.22211
 Alpha  occ. eigenvalues --   -6.22210  -3.19322  -3.19318  -3.19296  -3.19027
 Alpha  occ. eigenvalues --   -3.19012  -3.19002  -3.18634  -2.92271  -2.45017
 Alpha  occ. eigenvalues --   -2.45016  -2.45013  -2.45012  -2.44790  -2.44790
 Alpha  occ. eigenvalues --   -2.44786  -2.44786  -2.44782  -2.44782  -2.44779
 Alpha  occ. eigenvalues --   -2.44778  -2.44114  -2.44114  -2.44113  -2.44113
 Alpha  occ. eigenvalues --   -2.44110  -2.44109  -2.44109  -2.44108  -2.43925
 Alpha  occ. eigenvalues --   -2.43730  -2.43729  -2.43164  -2.43163  -1.86214
 Alpha  occ. eigenvalues --   -1.86183  -1.86117  -1.13781  -0.97498  -0.66988
 Alpha  occ. eigenvalues --   -0.65639  -0.65635  -0.65544  -0.64809  -0.58281
 Alpha  occ. eigenvalues --   -0.48467  -0.47597  -0.46369  -0.36718  -0.35190
 Alpha  occ. eigenvalues --   -0.33883  -0.33363  -0.32854  -0.30604  -0.28812
 Alpha  occ. eigenvalues --   -0.28098  -0.27686  -0.24601  -0.24582  -0.23010
 Alpha  occ. eigenvalues --   -0.22928  -0.22838  -0.22814  -0.22777  -0.22663
 Alpha  occ. eigenvalues --   -0.22310  -0.21256  -0.21072  -0.20935
 Alpha virt. eigenvalues --   -0.15432  -0.13894  -0.09511  -0.00823   0.00406
 Alpha virt. eigenvalues --    0.00479   0.01019   0.02530   0.02682   0.02864
 Alpha virt. eigenvalues --    0.02884   0.02978   0.04721   0.04739   0.05257

 Mulliken charges:
               1
     1  Pt  -0.243964
     2  Br  -0.301789
     3  Br  -0.383455
     4  Br  -0.301529
     5  Br  -0.301462
     6  N   -0.041605
     7  O   -0.062183
     8  O   -0.062227
     9  Br  -0.301786
 Sum of Mulliken charges =  -2.00000

 Dipole moment (field-independent basis, Debye):
    X=             -0.0002    Y=             -0.0004    Z=             -0.8699  Tot=              0.8699
 Quadrupole moment (field-independent basis, Debye-Ang):
   XX=           -173.2441   YY=           -169.8500   ZZ=           -173.6718
   XY=              0.0474   XZ=              0.0004   YZ=              0.0004

 Normal termination of Gaussian 09 at Sat Oct 30 04:40:27 2021.
