 Gaussian 09, Revision D.01,
 Gaussian 09:  EM64L-G09RevD.01 24-Apr-2013

 ----------------------------------------------------------
 #PBEPBE/gen scf=maxcycle=200 NMR=GIAO Scrf=(solvent=water)
 ----------------------------------------------------------

 ------------
 estrutura 35
 ------------
 Symbolic Z-matrix:
 Charge = -2 Multiplicity = 1

                         Standard orientation:
 ---------------------------------------------------------------------
 Center     Atomic      Atomic             Coordinates (Angstroms)
 Number     Number       Type             X           Y           Z
 ---------------------------------------------------------------------
      1         78           0       -0.001541   -0.109745   -0.193786
      2         35           0        0.048225   -0.344644    2.326916
      3         35           0       -0.045516    2.459096    0.054750
      4         35           0        2.542763   -0.070936   -0.278011
      5         35           0       -2.545566   -0.159492   -0.113706
      6         17           0       -0.047122    0.150998   -2.582161
      7          7           0        0.032771   -2.207226   -0.418227
      8          8           0        0.777173   -2.853487    0.294242
      9          8           0       -0.690272   -2.708657   -1.257812
 ---------------------------------------------------------------------

 SCF Done:  E(RPBE-PBE) =  -28048.0610588     A.U. after   20 cycles

      1  Pt   Isotropic =   146.3426   Anisotropy =  1259.2733

      2  Br   Isotropic =  1652.5764   Anisotropy =  1924.9888

      3  Br   Isotropic =  2269.5277   Anisotropy =   996.4883

      4  Br   Isotropic =  1426.2878   Anisotropy =  2283.8479

      5  Br   Isotropic =  1430.2765   Anisotropy =  2293.6950

      6  Cl   Isotropic =   602.8346   Anisotropy =   692.7262

      7  N    Isotropic =  -182.9486   Anisotropy =   258.3079

      8  O    Isotropic =  -397.1635   Anisotropy =   419.8816

      9  O    Isotropic =  -392.3851   Anisotropy =   421.1565

 The electronic state is 1-A.
 Alpha  occ. eigenvalues -- **********-478.58701-478.58575-478.58563-478.57494
 Alpha  occ. eigenvalues -- -427.60353-414.93263-414.93256-414.93252-100.53759
 Alpha  occ. eigenvalues --  -99.98365 -92.14028 -92.14022 -92.14012 -79.09965
 Alpha  occ. eigenvalues --  -79.09952 -79.09813 -79.09799 -79.09796 -61.50525
 Alpha  occ. eigenvalues --  -61.50401 -61.50389 -61.49328 -55.69029 -55.68899
 Alpha  occ. eigenvalues --  -55.68887 -55.68706 -55.68702 -55.68585 -55.68581
 Alpha  occ. eigenvalues --  -55.68572 -55.68569 -55.67791 -55.67526 -55.67525
 Alpha  occ. eigenvalues --  -20.89805 -18.79585 -18.79557 -17.46257 -17.46243
 Alpha  occ. eigenvalues --  -17.46224 -14.19117 -11.64734 -11.64695 -11.64188
 Alpha  occ. eigenvalues --  -11.64143 -11.64141  -9.11580  -8.33366  -8.33241
 Alpha  occ. eigenvalues --   -8.33229  -8.32170  -6.95533  -6.94695  -6.94684
 Alpha  occ. eigenvalues --   -6.24294  -6.24155  -6.24142  -6.23361  -6.23351
 Alpha  occ. eigenvalues --   -6.23243  -6.23233  -6.23231  -6.23221  -6.22986
 Alpha  occ. eigenvalues --   -6.22217  -6.22215  -3.19527  -3.19499  -3.19493
 Alpha  occ. eigenvalues --   -3.19218  -3.19202  -3.19179  -3.18812  -2.92454
 Alpha  occ. eigenvalues --   -2.45210  -2.45074  -2.45061  -2.44976  -2.44968
 Alpha  occ. eigenvalues --   -2.44845  -2.44838  -2.44832  -2.44825  -2.44282
 Alpha  occ. eigenvalues --   -2.44282  -2.44168  -2.44168  -2.44156  -2.44156
 Alpha  occ. eigenvalues --   -2.43931  -2.43736  -2.43735  -2.43170  -2.43169
 Alpha  occ. eigenvalues --   -1.86400  -1.86357  -1.86295  -1.13836  -0.97562
 Alpha  occ. eigenvalues --   -0.69136  -0.66608  -0.65762  -0.65628  -0.64844
 Alpha  occ. eigenvalues --   -0.58310  -0.48513  -0.47642  -0.46409  -0.37225
 Alpha  occ. eigenvalues --   -0.35445  -0.34219  -0.33626  -0.33028  -0.30737
 Alpha  occ. eigenvalues --   -0.28859  -0.28430  -0.28000  -0.24957  -0.24714
 Alpha  occ. eigenvalues --   -0.23574  -0.23297  -0.23132  -0.22938  -0.22859
 Alpha  occ. eigenvalues --   -0.22704  -0.22341  -0.21420  -0.21236  -0.21203
 Alpha virt. eigenvalues --   -0.15383  -0.13847  -0.09534  -0.00824   0.00443
 Alpha virt. eigenvalues --    0.00698   0.01115   0.02782   0.02822   0.02874
 Alpha virt. eigenvalues --    0.03061   0.03293   0.04981   0.05007   0.05441

 Mulliken charges:
               1
     1  Pt  -0.296230
     2  Br  -0.278888
     3  Br  -0.388479
     4  Br  -0.307210
     5  Br  -0.303415
     6  Cl  -0.262040
     7  N   -0.021366
     8  O   -0.067399
     9  O   -0.074975
 Sum of Mulliken charges =  -2.00000

 Dipole moment (field-independent basis, Debye):
    X=              0.0482    Y=             -1.0093    Z=              2.0019  Tot=              2.2424
 Quadrupole moment (field-independent basis, Debye-Ang):
   XX=           -165.0576   YY=           -167.3551   ZZ=           -165.3615
   XY=              0.2659   XZ=             -1.6212   YZ=             -0.1613

 Normal termination of Gaussian 09 at Sat Oct 30 04:18:21 2021.
