 Gaussian 09, Revision D.01,
 Gaussian 09:  EM64L-G09RevD.01 24-Apr-2013

 ----------------------------------------------------------
 #PBEPBE/gen scf=maxcycle=200 NMR=GIAO Scrf=(solvent=water)
 ----------------------------------------------------------

 ------------
 estrutura 59
 ------------
 Symbolic Z-matrix:
 Charge = -2 Multiplicity = 1

                         Standard orientation:
 ---------------------------------------------------------------------
 Center     Atomic      Atomic             Coordinates (Angstroms)
 Number     Number       Type             X           Y           Z
 ---------------------------------------------------------------------
      1         78           0       -0.004540   -0.007996    0.218429
      2          7           0        0.808554    1.448337    1.529474
      3          8           0        1.969047    1.350855    1.873359
      4          8           0        0.068644    2.341556    1.900651
      5          7           0       -1.740407   -0.018833    1.421644
      6          8           0       -1.565456   -0.037378    2.628700
      7          8           0       -2.837897   -0.005163    0.903332
      8          7           0        0.752816   -1.586401    1.417036
      9          8           0       -0.041795   -2.436076    1.779372
     10          8           0        1.931554   -1.603949    1.705704
     11         35           0       -1.005383   -1.776086   -1.364421
     12         35           0        2.124025    0.026300   -1.227864
     13         35           0       -0.963939    1.888163   -1.234673
 ---------------------------------------------------------------------

 SCF Done:  E(RPBE-PBE) =  -25430.5059541     A.U. after   20 cycles

      1  Pt   Isotropic = -1814.5741   Anisotropy =   521.4893

      2  N    Isotropic =  -192.2388   Anisotropy =   283.5185

      3  O    Isotropic =  -369.8723   Anisotropy =   500.7726

      4  O    Isotropic =  -373.0776   Anisotropy =   452.8279

      5  N    Isotropic =  -194.9905   Anisotropy =   286.0509

      6  O    Isotropic =  -367.7176   Anisotropy =   408.2179

      7  O    Isotropic =  -381.2502   Anisotropy =   453.1188

      8  N    Isotropic =  -193.1411   Anisotropy =   284.3799

      9  O    Isotropic =  -375.2798   Anisotropy =   455.2948

     10  O    Isotropic =  -369.1555   Anisotropy =   499.6701

     11  Br   Isotropic =  2226.3365   Anisotropy =  1111.2319

     12  Br   Isotropic =  2182.3632   Anisotropy =  1177.6171

     13  Br   Isotropic =  2217.5929   Anisotropy =  1115.4312

 The electronic state is 1-A.
 Alpha  occ. eigenvalues -- **********-478.57261-478.57253-478.57237-427.60254
 Alpha  occ. eigenvalues -- -414.93171-414.93163-414.93161 -99.98282 -92.13953
 Alpha  occ. eigenvalues --  -92.13931 -92.13930 -79.09873 -79.09851 -79.09727
 Alpha  occ. eigenvalues --  -79.09722 -79.09711 -61.49106 -61.49098 -61.49081
 Alpha  occ. eigenvalues --  -55.67556 -55.67548 -55.67534 -55.67308 -55.67307
 Alpha  occ. eigenvalues --  -55.67300 -55.67299 -55.67286 -55.67278 -20.89762
 Alpha  occ. eigenvalues --  -18.79370 -18.79341 -18.79331 -18.79139 -18.79101
 Alpha  occ. eigenvalues --  -18.79056 -17.46228 -17.46186 -17.46186 -14.18638
 Alpha  occ. eigenvalues --  -14.18600 -14.18575 -11.64669 -11.64615 -11.64154
 Alpha  occ. eigenvalues --  -11.64144 -11.64111  -8.31958  -8.31950  -8.31933
 Alpha  occ. eigenvalues --   -6.22743  -6.22737  -6.22725  -6.22021  -6.22018
 Alpha  occ. eigenvalues --   -6.22013  -6.22010  -6.22002  -6.21980  -3.19483
 Alpha  occ. eigenvalues --   -3.19451  -3.19420  -3.19180  -3.19173  -3.19160
 Alpha  occ. eigenvalues --   -3.18822  -2.92537  -2.43700  -2.43692  -2.43680
 Alpha  occ. eigenvalues --   -2.43515  -2.43513  -2.43508  -2.43506  -2.43499
 Alpha  occ. eigenvalues --   -2.43483  -2.42982  -2.42981  -2.42972  -2.42972
 Alpha  occ. eigenvalues --   -2.42951  -2.42951  -1.86536  -1.86483  -1.86420
 Alpha  occ. eigenvalues --   -1.13697  -1.13449  -1.13398  -0.97519  -0.97209
 Alpha  occ. eigenvalues --   -0.97187  -0.65524  -0.64634  -0.64558  -0.58083
 Alpha  occ. eigenvalues --   -0.58009  -0.57918  -0.49170  -0.48609  -0.48219
 Alpha  occ. eigenvalues --   -0.47497  -0.47307  -0.46369  -0.46046  -0.45985
 Alpha  occ. eigenvalues --   -0.45966  -0.33285  -0.33132  -0.33102  -0.32520
 Alpha  occ. eigenvalues --   -0.32434  -0.29013  -0.28944  -0.28726  -0.27760
 Alpha  occ. eigenvalues --   -0.25913  -0.24969  -0.24542  -0.23476  -0.23105
 Alpha  occ. eigenvalues --   -0.22959  -0.22242  -0.22203  -0.21725  -0.21343
 Alpha  occ. eigenvalues --   -0.21124  -0.21063
 Alpha virt. eigenvalues --   -0.13111  -0.12944  -0.09470  -0.09394  -0.09051
 Alpha virt. eigenvalues --   -0.00136   0.00899   0.00965   0.02368   0.03081
 Alpha virt. eigenvalues --    0.03086   0.03572   0.03592   0.04043   0.05674

 Mulliken charges:
               1
     1  Pt  -0.271029
     2  N   -0.035804
     3  O   -0.081092
     4  O   -0.070863
     5  N    0.008216
     6  O   -0.097051
     7  O   -0.096545
     8  N   -0.040448
     9  O   -0.071916
    10  O   -0.079235
    11  Br  -0.389747
    12  Br  -0.386800
    13  Br  -0.387687
 Sum of Mulliken charges =  -2.00000

 Dipole moment (field-independent basis, Debye):
    X=              0.1404    Y=             -0.0115    Z=              0.8602  Tot=              0.8717
 Quadrupole moment (field-independent basis, Debye-Ang):
   XX=           -173.0019   YY=           -169.1035   ZZ=           -169.6836
   XY=              0.1269   XZ=             -0.7532   YZ=              0.0761

 Normal termination of Gaussian 09 at Sat Oct 30 08:07:58 2021.
