 Gaussian 09, Revision D.01,
 Gaussian 09:  EM64L-G09RevD.01 24-Apr-2013

 ----------------------------------------------------------
 #PBEPBE/gen scf=maxcycle=200 NMR=GIAO Scrf=(solvent=water)
 ----------------------------------------------------------

 ------------
 estrutura 57
 ------------
 Symbolic Z-matrix:
 Charge = -2 Multiplicity = 1

                         Standard orientation:
 ---------------------------------------------------------------------
 Center     Atomic      Atomic             Coordinates (Angstroms)
 Number     Number       Type             X           Y           Z
 ---------------------------------------------------------------------
      1         78           0        0.144563   -0.011720   -0.111701
      2          7           0        2.261798    0.010826   -0.192340
      3          8           0        2.859492   -1.031227   -0.014976
      4          8           0        2.807530    1.074808   -0.413727
      5          7           0        0.230319    1.660346    1.149377
      6          8           0        1.116792    1.668633    1.987694
      7          8           0       -0.571884    2.561331    1.014107
      8         17           0        0.069422    1.444629   -2.052036
      9         17           0        0.106359   -1.923781   -1.604832
     10          7           0        0.165878   -1.242371    1.596623
     11          8           0       -0.381891   -0.808673    2.596093
     12          8           0        0.700007   -2.330333    1.544626
     13         35           0       -2.431729   -0.086233   -0.020192
 ---------------------------------------------------------------------

 SCF Done:  E(RPBE-PBE) =  -21214.5316828     A.U. after   23 cycles

      1  Pt   Isotropic = -2213.9749   Anisotropy =   673.1043

      2  N    Isotropic =  -189.9130   Anisotropy =   277.9752

      3  O    Isotropic =  -359.2515   Anisotropy =   497.5192

      4  O    Isotropic =  -359.2267   Anisotropy =   454.2966

      5  N    Isotropic =  -191.1578   Anisotropy =   281.1815

      6  O    Isotropic =  -366.8717   Anisotropy =   407.6064

      7  O    Isotropic =  -381.4465   Anisotropy =   454.9729

      8  Cl   Isotropic =   850.1708   Anisotropy =   335.0491

      9  Cl   Isotropic =   836.0824   Anisotropy =   361.6121

     10  N    Isotropic =  -189.9579   Anisotropy =   279.8187

     11  O    Isotropic =  -379.7017   Anisotropy =   461.7764

     12  O    Isotropic =  -365.7316   Anisotropy =   496.9764

     13  Br   Isotropic =  2183.7873   Anisotropy =  1211.4868

 The electronic state is 1-A.
 Alpha  occ. eigenvalues -- **********-478.57284-427.60635-414.93556-414.93546
 Alpha  occ. eigenvalues -- -414.93536-100.52533-100.52519 -99.98661 -92.14336
 Alpha  occ. eigenvalues --  -92.14313 -92.14302 -79.10262 -79.10231 -79.10107
 Alpha  occ. eigenvalues --  -79.10100 -79.10088 -61.49128 -55.67577 -55.67331
 Alpha  occ. eigenvalues --  -55.67330 -20.90146 -18.79445 -18.79411 -18.79393
 Alpha  occ. eigenvalues --  -18.79305 -18.79169 -18.79056 -17.46623 -17.46579
 Alpha  occ. eigenvalues --  -17.46554 -14.18798 -14.18742 -14.18730 -11.65081
 Alpha  occ. eigenvalues --  -11.65001 -11.64534 -11.64518 -11.64485  -9.10397
 Alpha  occ. eigenvalues --   -9.10381  -8.31980  -6.94238  -6.94229  -6.93555
 Alpha  occ. eigenvalues --   -6.93554  -6.93548  -6.93525  -6.22762  -6.22045
 Alpha  occ. eigenvalues --   -6.22042  -3.19885  -3.19852  -3.19809  -3.19569
 Alpha  occ. eigenvalues --   -3.19553  -3.19536  -3.19191  -2.92920  -2.43718
 Alpha  occ. eigenvalues --   -2.43536  -2.43533  -2.43006  -2.43006  -1.86940
 Alpha  occ. eigenvalues --   -1.86873  -1.86767  -1.13814  -1.13574  -1.13472
 Alpha  occ. eigenvalues --   -0.97641  -0.97354  -0.97233  -0.68398  -0.67737
 Alpha  occ. eigenvalues --   -0.64885  -0.58300  -0.58181  -0.58083  -0.49290
 Alpha  occ. eigenvalues --   -0.48783  -0.48402  -0.47633  -0.47448  -0.46460
 Alpha  occ. eigenvalues --   -0.46144  -0.46125  -0.46052  -0.34150  -0.33605
 Alpha  occ. eigenvalues --   -0.33578  -0.33054  -0.32850  -0.29652  -0.29010
 Alpha  occ. eigenvalues --   -0.28841  -0.27865  -0.26072  -0.25127  -0.24720
 Alpha  occ. eigenvalues --   -0.23934  -0.23585  -0.23481  -0.22926  -0.22715
 Alpha  occ. eigenvalues --   -0.22449  -0.21920  -0.21719  -0.21638
 Alpha virt. eigenvalues --   -0.12964  -0.12689  -0.09512  -0.09470  -0.09172
 Alpha virt. eigenvalues --    0.00019   0.01412   0.01643   0.02524   0.03590
 Alpha virt. eigenvalues --    0.04085   0.04578   0.05062   0.05146   0.06815

 Mulliken charges:
               1
     1  Pt  -0.027373
     2  N   -0.078841
     3  O   -0.091904
     4  O   -0.082221
     5  N   -0.027646
     6  O   -0.097336
     7  O   -0.103027
     8  Cl  -0.434109
     9  Cl  -0.433449
    10  N   -0.062884
    11  O   -0.082078
    12  O   -0.083473
    13  Br  -0.395656
 Sum of Mulliken charges =  -2.00000

 Dipole moment (field-independent basis, Debye):
    X=              0.5763    Y=              0.3352    Z=              3.2045  Tot=              3.2731
 Quadrupole moment (field-independent basis, Debye-Ang):
   XX=           -157.4989   YY=           -159.0378   ZZ=           -156.9690
   XY=              1.5653   XZ=             -0.1305   YZ=             -0.1762

 Normal termination of Gaussian 09 at Sat Oct 30 07:13:21 2021.
