 Gaussian 09, Revision D.01,
 Gaussian 09:  EM64L-G09RevD.01 24-Apr-2013

 ----------------------------------------------------------
 #PBEPBE/gen scf=maxcycle=200 NMR=GIAO Scrf=(solvent=water)
 ----------------------------------------------------------

 ------------
 estrutura 10
 ------------
 Symbolic Z-matrix:
 Charge = -2 Multiplicity = 1

                         Standard orientation:
 ---------------------------------------------------------------------
 Center     Atomic      Atomic             Coordinates (Angstroms)
 Number     Number       Type             X           Y           Z
 ---------------------------------------------------------------------
      1         78           0        0.000000    0.000000    0.171552
      2         17           0        0.000000    0.000000    2.575362
      3         35           0        1.799044    1.799027    0.181578
      4         35           0       -1.799044    1.799027    0.181578
      5         35           0        0.000000    0.000000   -2.359518
      6         35           0       -1.799044   -1.799027    0.181578
      7         35           0        1.799044   -1.799027    0.181578
 ---------------------------------------------------------------------

 SCF Done:  E(RPBE-PBE) =  -30410.8315079     A.U. after   16 cycles

      1  Pt   Isotropic =  1250.5610   Anisotropy =   605.7765

      2  Cl   Isotropic =   615.0109   Anisotropy =   663.1842

      3  Br   Isotropic =  1385.6899   Anisotropy =  2323.4379

      4  Br   Isotropic =  1385.6899   Anisotropy =  2323.4379

      5  Br   Isotropic =  1681.5183   Anisotropy =  1860.2367

      6  Br   Isotropic =  1385.6899   Anisotropy =  2323.4379

      7  Br   Isotropic =  1385.6899   Anisotropy =  2323.4379

 The electronic state is 1-A1.
 Alpha  occ. eigenvalues -- **********-478.58959-478.58733-478.58733-478.58733
 Alpha  occ. eigenvalues -- -478.58732-427.60345-414.93254-414.93244-414.93244
 Alpha  occ. eigenvalues -- -100.53957 -99.98351 -92.14016 -92.14001 -92.14001
 Alpha  occ. eigenvalues --  -79.09958 -79.09941 -79.09789 -79.09789 -79.09783
 Alpha  occ. eigenvalues --  -61.50776 -61.50553 -61.50553 -61.50553 -61.50553
 Alpha  occ. eigenvalues --  -55.69288 -55.69059 -55.69059 -55.69059 -55.69059
 Alpha  occ. eigenvalues --  -55.68953 -55.68953 -55.68733 -55.68733 -55.68733
 Alpha  occ. eigenvalues --  -55.68733 -55.68732 -55.68732 -55.68732 -55.68732
 Alpha  occ. eigenvalues --  -20.89767 -17.46223 -17.46191 -17.46191 -11.64712
 Alpha  occ. eigenvalues --  -11.64667 -11.64111 -11.64111 -11.64102  -9.11763
 Alpha  occ. eigenvalues --   -8.33612  -8.33389  -8.33389  -8.33389  -8.33389
 Alpha  occ. eigenvalues --   -6.95734  -6.94864  -6.94864  -6.24560  -6.24322
 Alpha  occ. eigenvalues --   -6.24322  -6.24322  -6.24322  -6.23591  -6.23591
 Alpha  occ. eigenvalues --   -6.23377  -6.23377  -6.23377  -6.23377  -6.23375
 Alpha  occ. eigenvalues --   -6.23375  -6.23375  -6.23375  -3.19495  -3.19461
 Alpha  occ. eigenvalues --   -3.19461  -3.19159  -3.19159  -3.19144  -3.18747
 Alpha  occ. eigenvalues --   -2.92353  -2.45469  -2.45234  -2.45234  -2.45234
 Alpha  occ. eigenvalues --   -2.45234  -2.45224  -2.45224  -2.44998  -2.44997
 Alpha  occ. eigenvalues --   -2.44997  -2.44997  -2.44995  -2.44995  -2.44995
 Alpha  occ. eigenvalues --   -2.44994  -2.44512  -2.44512  -2.44301  -2.44301
 Alpha  occ. eigenvalues --   -2.44301  -2.44301  -2.44300  -2.44300  -2.44300
 Alpha  occ. eigenvalues --   -2.44300  -1.86289  -1.86197  -1.86197  -0.69304
 Alpha  occ. eigenvalues --   -0.67054  -0.65941  -0.65782  -0.65733  -0.65733
 Alpha  occ. eigenvalues --   -0.37294  -0.36775  -0.34154  -0.34154  -0.33899
 Alpha  occ. eigenvalues --   -0.32857  -0.28668  -0.28400  -0.28400  -0.23746
 Alpha  occ. eigenvalues --   -0.23745  -0.23315  -0.23157  -0.23043  -0.23043
 Alpha  occ. eigenvalues --   -0.23004  -0.22958  -0.22958  -0.21364  -0.21364
 Alpha  occ. eigenvalues --   -0.21059
 Alpha virt. eigenvalues --   -0.15506  -0.15381  -0.01152   0.00495   0.00495
 Alpha virt. eigenvalues --    0.00733   0.02520   0.02742   0.02862   0.02879
 Alpha virt. eigenvalues --    0.02879   0.04703   0.04703   0.04915   0.05316

 Mulliken charges:
               1
     1  Pt  -0.317475
     2  Cl  -0.245456
     3  Br  -0.292072
     4  Br  -0.292072
     5  Br  -0.268780
     6  Br  -0.292072
     7  Br  -0.292072
 Sum of Mulliken charges =  -2.00000

 Dipole moment (field-independent basis, Debye):
    X=              0.0000    Y=              0.0000    Z=             -2.0635  Tot=              2.0635
 Quadrupole moment (field-independent basis, Debye-Ang):
   XX=           -166.7080   YY=           -166.7077   ZZ=           -166.6534
   XY=              0.0000   XZ=              0.0000   YZ=              0.0000

 Normal termination of Gaussian 09 at Fri Oct 29 23:20:33 2021.
