 Gaussian 09, Revision D.01,
 Gaussian 09:  EM64L-G09RevD.01 24-Apr-2013

 ----------------------------------------------------------
 #PBEPBE/gen scf=maxcycle=200 NMR=GIAO Scrf=(solvent=water)
 ----------------------------------------------------------

 ------------
 estrutura 18
 ------------
 Symbolic Z-matrix:
 Charge = -2 Multiplicity = 1

                         Standard orientation:
 ---------------------------------------------------------------------
 Center     Atomic      Atomic             Coordinates (Angstroms)
 Number     Number       Type             X           Y           Z
 ---------------------------------------------------------------------
      1         78           0        0.000000    0.000000    0.239514
      2         35           0        0.000000    0.000000   -2.289211
      3         17           0        0.000000    0.000000    2.647662
      4         17           0        0.000000    2.387925    0.241618
      5         17           0        2.387925    0.000000    0.241618
      6         17           0        0.000000   -2.387925    0.241618
      7         17           0       -2.387925    0.000000    0.241618
 ---------------------------------------------------------------------

 SCF Done:  E(RPBE-PBE) =  -21978.8766100     A.U. after   16 cycles

      1  Pt   Isotropic =   108.5798   Anisotropy =   291.1059

      2  Br   Isotropic =  1371.3500   Anisotropy =  2401.8691

      3  Cl   Isotropic =   489.1963   Anisotropy =   892.5441

      4  Cl   Isotropic =   617.0760   Anisotropy =   689.9180

      5  Cl   Isotropic =   617.0757   Anisotropy =   689.9184

      6  Cl   Isotropic =   617.0760   Anisotropy =   689.9180

      7  Cl   Isotropic =   617.0757   Anisotropy =   689.9184

 The electronic state is 1-A1.
 Alpha  occ. eigenvalues -- **********-478.59117-427.61316-414.94219-414.94219
 Alpha  occ. eigenvalues -- -414.94207-100.54345-100.54345-100.54344-100.54344
 Alpha  occ. eigenvalues -- -100.54073 -99.99312 -92.14973 -92.14973 -92.14955
 Alpha  occ. eigenvalues --  -79.10935 -79.10914 -79.10750 -79.10742 -79.10742
 Alpha  occ. eigenvalues --  -61.50935 -55.69451 -55.69109 -55.69109 -20.90734
 Alpha  occ. eigenvalues --  -17.47183 -17.47183 -17.47144 -11.65722 -11.65667
 Alpha  occ. eigenvalues --  -11.65062 -11.65049 -11.65049  -9.12150  -9.12150
 Alpha  occ. eigenvalues --   -9.12150  -9.12150  -9.11878  -8.33771  -6.96142
 Alpha  occ. eigenvalues --   -6.96142  -6.96142  -6.96142  -6.95853  -6.95241
 Alpha  occ. eigenvalues --   -6.95241  -6.95241  -6.95241  -6.95240  -6.95240
 Alpha  occ. eigenvalues --   -6.95240  -6.95240  -6.94979  -6.94979  -6.24733
 Alpha  occ. eigenvalues --   -6.23744  -6.23744  -3.20481  -3.20481  -3.20442
 Alpha  occ. eigenvalues --   -3.20125  -3.20105  -3.20105  -3.19673  -2.93282
 Alpha  occ. eigenvalues --   -2.45638  -2.45388  -2.45388  -2.44661  -2.44661
 Alpha  occ. eigenvalues --   -1.87169  -1.87169  -1.87056  -0.70748  -0.69344
 Alpha  occ. eigenvalues --   -0.69043  -0.69043  -0.68970  -0.66312  -0.38644
 Alpha  occ. eigenvalues --   -0.38160  -0.35324  -0.35054  -0.35054  -0.33820
 Alpha  occ. eigenvalues --   -0.29640  -0.29640  -0.29310  -0.24713  -0.24695
 Alpha  occ. eigenvalues --   -0.24695  -0.24249  -0.24185  -0.24185  -0.23398
 Alpha  occ. eigenvalues --   -0.23384  -0.23384  -0.22675  -0.22173  -0.22173
 Alpha virt. eigenvalues --   -0.15530  -0.15309  -0.00829   0.00964   0.01235
 Alpha virt. eigenvalues --    0.01235   0.03316   0.03522   0.03581   0.03581
 Alpha virt. eigenvalues --    0.04475   0.06095   0.06291   0.06291   0.07348

 Mulliken charges:
               1
     1  Pt  -0.282557
     2  Br  -0.265790
     3  Cl  -0.315209
     4  Cl  -0.284111
     5  Cl  -0.284111
     6  Cl  -0.284111
     7  Cl  -0.284111
 Sum of Mulliken charges =  -2.00000

 Dipole moment (field-independent basis, Debye):
    X=              0.0000    Y=              0.0000    Z=             -2.7469  Tot=              2.7469
 Quadrupole moment (field-independent basis, Debye-Ang):
   XX=           -140.7684   YY=           -140.7684   ZZ=           -141.7911
   XY=              0.0000   XZ=              0.0000   YZ=              0.0000

 Normal termination of Gaussian 09 at Thu Jan  6 22:21:24 2022.
