 Gaussian 16, Revision C.01,
 Gaussian 16:  EM64L-G16RevC.01  3-Jul-2019

 ----------------------------------------------------------
 #PBEPBE/gen scf=maxcycle=200 NMR=GIAO Scrf=(solvent=water)
 ----------------------------------------------------------

 ------------
 estrutura 68
 ------------
 Symbolic Z-matrix:
 Charge = -2 Multiplicity = 1

                         Standard orientation:
 ---------------------------------------------------------------------
 Center     Atomic      Atomic             Coordinates (Angstroms)
 Number     Number       Type             X           Y           Z
 ---------------------------------------------------------------------
      1         78           0       -0.000009    0.000011   -0.000015
      2          7           0        1.322803   -0.315199    1.634427
      3          8           0        2.458985   -0.690751    1.396916
      4          8           0        0.908482   -0.111981    2.763787
      5          7           0        1.538069   -0.572525   -1.352199
      6          7           0       -1.322680    0.315345   -1.634516
      7          8           0       -2.458340    0.692545   -1.397106
      8          8           0       -0.908709    0.110823   -2.763773
      9          8           0        2.283601    0.292049   -1.782541
     10          8           0        1.631792   -1.749510   -1.659406
     11          7           0       -0.640845   -2.023390    0.128742
     12          8           0       -0.149284   -2.733965    0.990108
     13          8           0       -1.482085   -2.416721   -0.662487
     14          7           0        0.640750    2.023407   -0.128821
     15          8           0        1.480893    2.417241    0.663296
     16          8           0        0.150297    2.733545   -0.991155
     17          7           0       -1.538087    0.572194    1.352308
     18          8           0       -1.632378    1.749174    1.659284
     19          8           0       -2.283175   -0.292411    1.783269
 ---------------------------------------------------------------------

 SCF Done:  E(RPBE-PBE) =  -18342.1832280     A.U. after   17 cycles

      1  Pt   Isotropic = -3073.0047   Anisotropy =     5.5268

      2  N    Isotropic =  -225.0730   Anisotropy =   364.7134

      3  O    Isotropic =  -376.5409   Anisotropy =   510.5654

      4  O    Isotropic =  -376.3531   Anisotropy =   510.3565

      5  N    Isotropic =  -225.1120   Anisotropy =   364.6945

      6  N    Isotropic =  -225.0791   Anisotropy =   364.7181

      7  O    Isotropic =  -376.5452   Anisotropy =   510.5658

      8  O    Isotropic =  -376.3479   Anisotropy =   510.3460

      9  O    Isotropic =  -376.5988   Anisotropy =   510.4203

     10  O    Isotropic =  -376.4095   Anisotropy =   510.2752

     11  N    Isotropic =  -225.1378   Anisotropy =   364.7579

     12  O    Isotropic =  -376.5194   Anisotropy =   510.5996

     13  O    Isotropic =  -376.4850   Anisotropy =   510.4924

     14  N    Isotropic =  -225.1101   Anisotropy =   364.7310

     15  O    Isotropic =  -376.4586   Anisotropy =   510.4732

     16  O    Isotropic =  -376.5000   Anisotropy =   510.5857

     17  N    Isotropic =  -225.0657   Anisotropy =   364.6577

     18  O    Isotropic =  -376.3803   Anisotropy =   510.2325

     19  O    Isotropic =  -376.5320   Anisotropy =   510.3480

 The electronic state is 1-A.
 Alpha  occ. eigenvalues -- **********-427.60783-414.93723-414.93723-414.93722
 Alpha  occ. eigenvalues --  -99.98811 -92.14474 -92.14473 -92.14473 -79.10385
 Alpha  occ. eigenvalues --  -79.10385 -79.10246 -79.10246 -79.10246 -20.90337
 Alpha  occ. eigenvalues --  -18.78005 -18.78004 -18.78004 -18.78004 -18.78003
 Alpha  occ. eigenvalues --  -18.78003 -18.78002 -18.78002 -18.78001 -18.78001
 Alpha  occ. eigenvalues --  -18.78000 -18.78000 -17.46778 -17.46778 -17.46777
 Alpha  occ. eigenvalues --  -14.16985 -14.16985 -14.16984 -14.16984 -14.16983
 Alpha  occ. eigenvalues --  -14.16982 -11.65210 -11.65210 -11.64715 -11.64714
 Alpha  occ. eigenvalues --  -11.64714  -3.20029  -3.20029  -3.20028  -3.19757
 Alpha  occ. eigenvalues --   -3.19757  -3.19756  -3.19414  -2.93263  -1.87263
 Alpha  occ. eigenvalues --   -1.87262  -1.87260  -1.12512  -1.12104  -1.12103
 Alpha  occ. eigenvalues --   -1.12101  -1.12039  -1.12037  -0.96002  -0.96001
 Alpha  occ. eigenvalues --   -0.95997  -0.95978  -0.95976  -0.95974  -0.58219
 Alpha  occ. eigenvalues --   -0.58215  -0.58213  -0.56118  -0.56118  -0.56116
 Alpha  occ. eigenvalues --   -0.48794  -0.48085  -0.48082  -0.47485  -0.47484
 Alpha  occ. eigenvalues --   -0.47478  -0.46604  -0.46600  -0.46587  -0.45218
 Alpha  occ. eigenvalues --   -0.45217  -0.45215  -0.45052  -0.45050  -0.45050
 Alpha  occ. eigenvalues --   -0.44045  -0.44043  -0.44041  -0.32040  -0.32038
 Alpha  occ. eigenvalues --   -0.32036  -0.29353  -0.29353  -0.28625  -0.27507
 Alpha  occ. eigenvalues --   -0.27507  -0.27502  -0.27007  -0.27005  -0.24779
 Alpha  occ. eigenvalues --   -0.24772  -0.24771  -0.23734  -0.23732  -0.23729
 Alpha  occ. eigenvalues --   -0.21992  -0.20002  -0.20002  -0.20001
 Alpha virt. eigenvalues --   -0.10594  -0.10589  -0.09063  -0.09061  -0.09060
 Alpha virt. eigenvalues --   -0.08004  -0.07998  -0.07997   0.03807   0.03808
 Alpha virt. eigenvalues --    0.03812   0.05636   0.05637   0.05639   0.06060

 Mulliken charges:
               1
     1  Pt   0.219185
     2  N   -0.143595
     3  O   -0.113079
     4  O   -0.113228
     5  N   -0.143426
     6  N   -0.143557
     7  O   -0.113082
     8  O   -0.113228
     9  O   -0.113125
    10  O   -0.113244
    11  N   -0.143459
    12  O   -0.113249
    13  O   -0.113143
    14  N   -0.143508
    15  O   -0.113128
    16  O   -0.113246
    17  N   -0.143478
    18  O   -0.113267
    19  O   -0.113143
 Sum of Mulliken charges =  -2.00000

 Dipole moment (field-independent basis, Debye):
    X=              0.0008    Y=             -0.0010    Z=             -0.0017  Tot=              0.0022
 Quadrupole moment (field-independent basis, Debye-Ang):
   XX=           -167.0422   YY=           -167.0276   ZZ=           -167.0195
   XY=             -0.0015   XZ=             -0.0041   YZ=             -0.0114

 Normal termination of Gaussian 16 at Wed Aug 13 13:44:14 2025.
