 Gaussian 09, Revision D.01,
 Gaussian 09:  EM64L-G09RevD.01 24-Apr-2013

 ----------------------------------------------------------
 #PBEPBE/gen scf=maxcycle=200 NMR=GIAO Scrf=(solvent=water)
 ----------------------------------------------------------

 ------------
 estrutura 53
 ------------
 Symbolic Z-matrix:
 Charge = -2 Multiplicity = 1

                         Standard orientation:
 ---------------------------------------------------------------------
 Center     Atomic      Atomic             Coordinates (Angstroms)
 Number     Number       Type             X           Y           Z
 ---------------------------------------------------------------------
      1         78           0        0.085827   -0.221608    0.064098
      2          7           0        2.120138   -0.721155    0.362305
      3          7           0       -0.145110    0.270197    2.136474
      4          8           0        2.765506   -0.085441    1.172153
      5          8           0        2.570884   -1.648270   -0.281869
      6          8           0        0.511510    1.182440    2.607653
      7          8           0       -0.946918   -0.369684    2.798442
      8         35           0        0.695954    2.167169   -0.513784
      9          7           0        0.278803   -0.716473   -2.000956
     10          8           0        1.277916   -0.347908   -2.597897
     11          8           0       -0.607682   -1.358486   -2.538449
     12         17           0       -0.430802   -2.518079    0.534677
     13         35           0       -2.402166    0.383790   -0.253479
 ---------------------------------------------------------------------

 SCF Done:  E(RPBE-PBE) =  -23322.5142314     A.U. after   22 cycles

      1  Pt   Isotropic = -1350.4888   Anisotropy =   965.3817

      2  N    Isotropic =  -184.4699   Anisotropy =   265.5601

      3  N    Isotropic =  -210.7575   Anisotropy =   329.5101

      4  O    Isotropic =  -374.7691   Anisotropy =   475.4624

      5  O    Isotropic =  -370.4747   Anisotropy =   445.1263

      6  O    Isotropic =  -402.3493   Anisotropy =   529.1468

      7  O    Isotropic =  -404.3555   Anisotropy =   527.8501

      8  Br   Isotropic =  1637.8543   Anisotropy =  1986.2792

      9  N    Isotropic =  -211.0911   Anisotropy =   328.9393

     10  O    Isotropic =  -407.6112   Anisotropy =   504.9674

     11  O    Isotropic =  -408.5330   Anisotropy =   520.3505

     12  Cl   Isotropic =   574.5374   Anisotropy =   766.8580

     13  Br   Isotropic =  2260.2865   Anisotropy =  1051.3534

 The electronic state is 1-A.
 Alpha  occ. eigenvalues -- **********-478.58196-478.57370-427.60256-414.93170
 Alpha  occ. eigenvalues -- -414.93164-414.93160-100.53351 -99.98282 -92.13951
 Alpha  occ. eigenvalues --  -92.13942 -92.13921 -79.09872 -79.09860 -79.09737
 Alpha  occ. eigenvalues --  -79.09716 -79.09707 -61.50035 -61.49211 -55.68520
 Alpha  occ. eigenvalues --  -55.68223 -55.68217 -55.67664 -55.67413 -55.67412
 Alpha  occ. eigenvalues --  -20.89760 -18.79525 -18.79477 -18.78147 -18.78048
 Alpha  occ. eigenvalues --  -18.78008 -18.77890 -17.46222 -17.46204 -17.46169
 Alpha  occ. eigenvalues --  -14.18991 -14.17202 -14.17067 -11.64659 -11.64642
 Alpha  occ. eigenvalues --  -11.64176 -11.64115 -11.64093  -9.11205  -8.32888
 Alpha  occ. eigenvalues --   -8.32060  -6.95120  -6.94336  -6.94318  -6.23771
 Alpha  occ. eigenvalues --   -6.22908  -6.22893  -6.22852  -6.22120  -6.22117
 Alpha  occ. eigenvalues --   -3.19480  -3.19456  -3.19435  -3.19181  -3.19174
 Alpha  occ. eigenvalues --   -3.19148  -3.18804  -2.92527  -2.44701  -2.44484
 Alpha  occ. eigenvalues --   -2.44473  -2.43839  -2.43839  -2.43805  -2.43620
 Alpha  occ. eigenvalues --   -2.43617  -2.43078  -2.43077  -1.86528  -1.86470
 Alpha  occ. eigenvalues --   -1.86398  -1.13838  -1.12217  -1.12092  -0.97651
 Alpha  occ. eigenvalues --   -0.95865  -0.95714  -0.68850  -0.65836  -0.64852
 Alpha  occ. eigenvalues --   -0.58226  -0.57961  -0.56047  -0.48814  -0.48117
 Alpha  occ. eigenvalues --   -0.47673  -0.46436  -0.46231  -0.45665  -0.45483
 Alpha  occ. eigenvalues --   -0.45152  -0.44953  -0.36620  -0.33513  -0.33113
 Alpha  occ. eigenvalues --   -0.32035  -0.31814  -0.28885  -0.27915  -0.27633
 Alpha  occ. eigenvalues --   -0.27277  -0.26238  -0.25269  -0.24701  -0.23982
 Alpha  occ. eigenvalues --   -0.23531  -0.23328  -0.22716  -0.22298  -0.22256
 Alpha  occ. eigenvalues --   -0.21433  -0.21313  -0.20310
 Alpha virt. eigenvalues --   -0.14192  -0.11646  -0.09495  -0.08986  -0.07984
 Alpha virt. eigenvalues --    0.00013   0.00786   0.01631   0.01740   0.03119
 Alpha virt. eigenvalues --    0.03519   0.03575   0.04727   0.04801   0.06486

 Mulliken charges:
               1
     1  Pt  -0.210295
     2  N   -0.028741
     3  N   -0.070603
     4  O   -0.093043
     5  O   -0.077089
     6  O   -0.089908
     7  O   -0.098923
     8  Br  -0.290327
     9  N   -0.062000
    10  O   -0.082414
    11  O   -0.107143
    12  Cl  -0.413390
    13  Br  -0.376125
 Sum of Mulliken charges =  -2.00000

 Dipole moment (field-independent basis, Debye):
    X=              1.0977    Y=              1.9093    Z=             -0.2888  Tot=              2.2212
 Quadrupole moment (field-independent basis, Debye-Ang):
   XX=           -164.5950   YY=           -162.5872   ZZ=           -165.7240
   XY=             -2.4421   XZ=              1.3248   YZ=             -3.1652

 Normal termination of Gaussian 09 at Wed May 11 15:06:57 2022.
