 Gaussian 09, Revision D.01,
 Gaussian 09:  EM64L-G09RevD.01 24-Apr-2013

 ----------------------------------------------------------
 #PBEPBE/gen scf=maxcycle=200 NMR=GIAO Scrf=(solvent=water)
 ----------------------------------------------------------

 ------------
 estrutura 26
 ------------
 Symbolic Z-matrix:
 Charge = -2 Multiplicity = 1

                         Standard orientation:
 ---------------------------------------------------------------------
 Center     Atomic      Atomic             Coordinates (Angstroms)
 Number     Number       Type             X           Y           Z
 ---------------------------------------------------------------------
      1         78           0        0.160174    0.000000   -0.000027
      2          7           0        2.278289    0.000000    0.001623
      3          8           0        2.853304   -1.069789    0.002143
      4          8           0        2.853304    1.069789    0.002145
      5         17           0        0.240187    0.000023    2.384222
      6         17           0        0.071597   -2.389536   -0.000073
      7         17           0        0.245879   -0.000024   -2.384004
      8         17           0        0.071597    2.389536   -0.000120
      9         35           0       -2.422625    0.000000   -0.001257
 ---------------------------------------------------------------------

 SCF Done:  E(RPBE-PBE) =  -21724.0946024     A.U. after   18 cycles

      1  Pt   Isotropic =  -627.8629   Anisotropy =   310.3220

      2  N    Isotropic =  -177.9465   Anisotropy =   251.9195

      3  O    Isotropic =  -363.9233   Anisotropy =   429.7166

      4  O    Isotropic =  -363.9210   Anisotropy =   429.7148

      5  Cl   Isotropic =   720.8350   Anisotropy =   552.7874

      6  Cl   Isotropic =   505.8431   Anisotropy =   835.3815

      7  Cl   Isotropic =   721.1844   Anisotropy =   552.3742

      8  Cl   Isotropic =   505.8436   Anisotropy =   835.3808

      9  Br   Isotropic =  2221.7442   Anisotropy =  1102.8642

 The electronic state is 1-A.
 Alpha  occ. eigenvalues -- **********-478.57560-427.60857-414.93770-414.93766
 Alpha  occ. eigenvalues -- -414.93738-100.54307-100.54306-100.53922-100.53922
 Alpha  occ. eigenvalues --  -99.98867 -92.14541 -92.14532 -92.14493 -79.10497
 Alpha  occ. eigenvalues --  -79.10441 -79.10312 -79.10295 -79.10294 -61.49393
 Alpha  occ. eigenvalues --  -55.67856 -55.67594 -55.67587 -20.90315 -18.79842
 Alpha  occ. eigenvalues --  -18.79842 -17.46791 -17.46774 -17.46690 -14.19401
 Alpha  occ. eigenvalues --  -11.65323 -11.65180 -11.64664 -11.64650 -11.64638
 Alpha  occ. eigenvalues --   -9.12124  -9.12123  -9.11746  -9.11746  -8.32235
 Alpha  occ. eigenvalues --   -6.96085  -6.96084  -6.95722  -6.95722  -6.95237
 Alpha  occ. eigenvalues --   -6.95235  -6.95221  -6.95220  -6.94852  -6.94852
 Alpha  occ. eigenvalues --   -6.94834  -6.94834  -6.23052  -6.22291  -6.22270
 Alpha  occ. eigenvalues --   -3.20083  -3.20062  -3.19972  -3.19743  -3.19695
 Alpha  occ. eigenvalues --   -3.19668  -3.19291  -2.92958  -2.43997  -2.43809
 Alpha  occ. eigenvalues --   -2.43793  -2.43234  -2.43233  -1.86930  -1.86909
 Alpha  occ. eigenvalues --   -1.86701  -1.14202  -0.97930  -0.70417  -0.69192
 Alpha  occ. eigenvalues --   -0.69098  -0.68729  -0.64979  -0.58442  -0.48732
 Alpha  occ. eigenvalues --   -0.47922  -0.46630  -0.38492  -0.36448  -0.35249
 Alpha  occ. eigenvalues --   -0.34299  -0.33766  -0.31152  -0.29315  -0.29227
 Alpha  occ. eigenvalues --   -0.28868  -0.26159  -0.25226  -0.24597  -0.24498
 Alpha  occ. eigenvalues --   -0.24409  -0.23279  -0.23232  -0.23155  -0.22576
 Alpha  occ. eigenvalues --   -0.22503  -0.22134  -0.21340
 Alpha virt. eigenvalues --   -0.15170  -0.13861  -0.09745  -0.00630   0.01119
 Alpha virt. eigenvalues --    0.01219   0.01576   0.03502   0.03620   0.03771
 Alpha virt. eigenvalues --    0.04100   0.04435   0.06409   0.06932   0.07046

 Mulliken charges:
               1
     1  Pt  -0.244589
     2  N    0.006924
     3  O   -0.094860
     4  O   -0.094863
     5  Cl  -0.313705
     6  Cl  -0.280938
     7  Cl  -0.313939
     8  Cl  -0.280941
     9  Br  -0.383088
 Sum of Mulliken charges =  -2.00000

 Dipole moment (field-independent basis, Debye):
    X=              0.6258    Y=              0.0000    Z=              0.0005  Tot=              0.6258
 Quadrupole moment (field-independent basis, Debye-Ang):
   XX=           -148.3064   YY=           -147.7094   ZZ=           -143.1920
   XY=              0.0000   XZ=              0.0048   YZ=              0.0000

 Normal termination of Gaussian 09 at Sat Oct 30 01:53:32 2021.
