 Gaussian 09, Revision D.01,
 Gaussian 09:  EM64L-G09RevD.01 24-Apr-2013

 ----------------------------------------------------------
 #PBEPBE/gen scf=maxcycle=200 NMR=GIAO Scrf=(solvent=water)
 ----------------------------------------------------------

 ------------
 estrutura 47
 ------------
 Symbolic Z-matrix:
 Charge = -2 Multiplicity = 1

                         Standard orientation:
 ---------------------------------------------------------------------
 Center     Atomic      Atomic             Coordinates (Angstroms)
 Number     Number       Type             X           Y           Z
 ---------------------------------------------------------------------
      1         78           0       -0.076735   -0.139626   -0.211256
      2          7           0       -2.128899   -0.430125   -0.618487
      3          7           0        0.178080   -2.235874   -0.222972
      4          8           0       -2.418962   -1.276746   -1.444304
      5          8           0       -2.952783    0.241303   -0.029772
      6          8           0        1.142126   -2.706988   -0.792182
      7          8           0       -0.666128   -2.910383    0.338789
      8         35           0       -0.512984   -0.216757    2.280235
      9         35           0       -0.408753    2.415851   -0.225634
     10         35           0        2.430567    0.197745    0.274184
     11         17           0        0.352822   -0.065534   -2.571738
 ---------------------------------------------------------------------

 SCF Done:  E(RPBE-PBE) =  -25685.2905312     A.U. after   20 cycles

      1  Pt   Isotropic = -1023.7180   Anisotropy =   639.5475

      2  N    Isotropic =  -187.7631   Anisotropy =   268.5720

      3  N    Isotropic =  -187.3660   Anisotropy =   267.9383

      4  O    Isotropic =  -379.0531   Anisotropy =   416.9479

      5  O    Isotropic =  -386.9454   Anisotropy =   438.2562

      6  O    Isotropic =  -382.2917   Anisotropy =   436.3465

      7  O    Isotropic =  -384.2193   Anisotropy =   415.7842

      8  Br   Isotropic =  1672.6742   Anisotropy =  1944.2847

      9  Br   Isotropic =  2213.0753   Anisotropy =  1095.8645

     10  Br   Isotropic =  2216.1708   Anisotropy =  1107.5170

     11  Cl   Isotropic =   600.6825   Anisotropy =   718.3709

 The electronic state is 1-A.
 Alpha  occ. eigenvalues -- **********-478.58443-478.57430-478.57429-427.60430
 Alpha  occ. eigenvalues -- -414.93339-414.93337-414.93333-100.53561 -99.98450
 Alpha  occ. eigenvalues --  -92.14117 -92.14114 -92.14087 -79.10046 -79.10029
 Alpha  occ. eigenvalues --  -79.09903 -79.09880 -79.09879 -61.50277 -61.49269
 Alpha  occ. eigenvalues --  -61.49268 -55.68766 -55.68461 -55.68460 -55.67727
 Alpha  occ. eigenvalues --  -55.67726 -55.67470 -55.67469 -55.67466 -55.67464
 Alpha  occ. eigenvalues --  -20.89913 -18.79587 -18.79550 -18.79452 -18.79440
 Alpha  occ. eigenvalues --  -17.46370 -17.46365 -17.46317 -14.18983 -14.18964
 Alpha  occ. eigenvalues --  -11.64826 -11.64796 -11.64317 -11.64257 -11.64251
 Alpha  occ. eigenvalues --   -9.11402  -8.33125  -8.32115  -8.32114  -6.95329
 Alpha  occ. eigenvalues --   -6.94522  -6.94520  -6.24019  -6.23134  -6.23131
 Alpha  occ. eigenvalues --   -6.22922  -6.22920  -6.22173  -6.22172  -6.22162
 Alpha  occ. eigenvalues --   -6.22159  -3.19629  -3.19622  -3.19585  -3.19322
 Alpha  occ. eigenvalues --   -3.19320  -3.19302  -3.18943  -2.92629  -2.44945
 Alpha  occ. eigenvalues --   -2.44721  -2.44719  -2.44067  -2.44067  -2.43871
 Alpha  occ. eigenvalues --   -2.43870  -2.43682  -2.43682  -2.43674  -2.43673
 Alpha  occ. eigenvalues --   -2.43123  -2.43123  -2.43121  -2.43121  -1.86573
 Alpha  occ. eigenvalues --   -1.86569  -1.86507  -1.13865  -1.13669  -0.97646
 Alpha  occ. eigenvalues --   -0.97433  -0.69017  -0.66080  -0.65076  -0.64705
 Alpha  occ. eigenvalues --   -0.58270  -0.58255  -0.49030  -0.48515  -0.47708
 Alpha  occ. eigenvalues --   -0.46905  -0.46477  -0.46249  -0.36800  -0.33719
 Alpha  occ. eigenvalues --   -0.33634  -0.33290  -0.32627  -0.29869  -0.29161
 Alpha  occ. eigenvalues --   -0.28427  -0.27952  -0.25589  -0.25277  -0.24241
 Alpha  occ. eigenvalues --   -0.24069  -0.22993  -0.22928  -0.22615  -0.22500
 Alpha  occ. eigenvalues --   -0.22155  -0.21516  -0.21344  -0.21207
 Alpha virt. eigenvalues --   -0.14410  -0.13167  -0.09579  -0.09438  -0.00525
 Alpha virt. eigenvalues --    0.00652   0.00935   0.01617   0.03039   0.03078
 Alpha virt. eigenvalues --    0.03164   0.03471   0.03834   0.05650   0.05757

 Mulliken charges:
               1
     1  Pt  -0.271932
     2  N    0.001067
     3  N   -0.016163
     4  O   -0.089883
     5  O   -0.084260
     6  O   -0.082735
     7  O   -0.073347
     8  Br  -0.288622
     9  Br  -0.385623
    10  Br  -0.383936
    11  Cl  -0.324566
 Sum of Mulliken charges =  -2.00000

 Dipole moment (field-independent basis, Debye):
    X=             -0.8172    Y=             -0.6765    Z=              1.9579  Tot=              2.2268
 Quadrupole moment (field-independent basis, Debye-Ang):
   XX=           -166.3600   YY=           -165.7799   ZZ=           -163.1379
   XY=             -0.0212   XZ=              1.4104   YZ=             -1.5962

 Normal termination of Gaussian 09 at Wed May 11 14:41:59 2022.
