 Gaussian 09, Revision D.01,
 Gaussian 09:  EM64L-G09RevD.01 24-Apr-2013

 ----------------------------------------------------------
 #PBEPBE/gen scf=maxcycle=200 NMR=GIAO Scrf=(solvent=water)
 ----------------------------------------------------------

 ------------
 estrutura 55
 ------------
 Symbolic Z-matrix:
 Charge = -2 Multiplicity = 1

                         Standard orientation:
 ---------------------------------------------------------------------
 Center     Atomic      Atomic             Coordinates (Angstroms)
 Number     Number       Type             X           Y           Z
 ---------------------------------------------------------------------
      1         78           0        0.004820   -0.125103    0.017442
      2          7           0        0.070463   -2.233901    0.194472
      3          7           0        0.052695    0.123565    2.146512
      4          8           0        0.698150   -2.730625    1.108151
      5          8           0       -0.540620   -2.882314   -0.633561
      6          8           0        0.979974   -0.354289    2.776857
      7          8           0       -0.844082    0.757289    2.680813
      8         35           0       -2.532156   -0.311929    0.091448
      9         35           0        2.543276    0.008122   -0.099549
     10         35           0       -0.090860    2.442021   -0.203796
     11          7           0       -0.031161   -0.334676   -2.106404
     12          8           0        0.719851   -1.147030   -2.622725
     13          8           0       -0.791897    0.361421   -2.757802
 ---------------------------------------------------------------------

 SCF Done:  E(RPBE-PBE) =  -25430.5016330     A.U. after   23 cycles

      1  Pt   Isotropic = -1111.0234   Anisotropy =  1280.9009

      2  N    Isotropic =  -184.3143   Anisotropy =   266.3959

      3  N    Isotropic =  -210.2133   Anisotropy =   327.5156

      4  O    Isotropic =  -377.7207   Anisotropy =   476.6269

      5  O    Isotropic =  -381.1429   Anisotropy =   446.7834

      6  O    Isotropic =  -406.2393   Anisotropy =   529.1591

      7  O    Isotropic =  -414.1334   Anisotropy =   518.2400

      8  Br   Isotropic =  1515.2281   Anisotropy =  2211.6175

      9  Br   Isotropic =  1546.1177   Anisotropy =  2122.9386

     10  Br   Isotropic =  2287.3943   Anisotropy =   975.0454

     11  N    Isotropic =  -210.8780   Anisotropy =   328.6057

     12  O    Isotropic =  -409.8153   Anisotropy =   497.9510

     13  O    Isotropic =  -417.1214   Anisotropy =   515.0444

 The electronic state is 1-A.
 Alpha  occ. eigenvalues -- **********-478.58114-478.58104-478.57321-427.60109
 Alpha  occ. eigenvalues -- -414.93025-414.93019-414.93010 -99.98135 -92.13804
 Alpha  occ. eigenvalues --  -92.13797 -92.13771 -79.09726 -79.09708 -79.09590
 Alpha  occ. eigenvalues --  -79.09570 -79.09561 -61.49952 -61.49943 -61.49163
 Alpha  occ. eigenvalues --  -55.68434 -55.68423 -55.68142 -55.68137 -55.68134
 Alpha  occ. eigenvalues --  -55.68127 -55.67617 -55.67365 -55.67363 -20.89609
 Alpha  occ. eigenvalues --  -18.79461 -18.79348 -18.78089 -18.78014 -18.77986
 Alpha  occ. eigenvalues --  -18.77837 -17.46073 -17.46058 -17.46011 -14.18916
 Alpha  occ. eigenvalues --  -14.17163 -14.17044 -11.64511 -11.64473 -11.64027
 Alpha  occ. eigenvalues --  -11.63971 -11.63948  -8.32803  -8.32795  -8.32012
 Alpha  occ. eigenvalues --   -6.23677  -6.23664  -6.22828  -6.22823  -6.22813
 Alpha  occ. eigenvalues --   -6.22806  -6.22805  -6.22072  -6.22068  -3.19325
 Alpha  occ. eigenvalues --   -3.19306  -3.19271  -3.19028  -3.19017  -3.19007
 Alpha  occ. eigenvalues --   -3.18664  -2.92376  -2.44609  -2.44598  -2.44396
 Alpha  occ. eigenvalues --   -2.44388  -2.44386  -2.44375  -2.43761  -2.43761
 Alpha  occ. eigenvalues --   -2.43759  -2.43756  -2.43755  -2.43572  -2.43570
 Alpha  occ. eigenvalues --   -2.43030  -2.43029  -1.86388  -1.86336  -1.86225
 Alpha  occ. eigenvalues --   -1.13759  -1.12171  -1.12054  -0.97551  -0.95810
 Alpha  occ. eigenvalues --   -0.95670  -0.66157  -0.65342  -0.64791  -0.58158
 Alpha  occ. eigenvalues --   -0.57910  -0.56021  -0.48768  -0.48033  -0.47594
 Alpha  occ. eigenvalues --   -0.46369  -0.46201  -0.45612  -0.45450  -0.45114
 Alpha  occ. eigenvalues --   -0.44920  -0.35962  -0.33194  -0.32812  -0.31987
 Alpha  occ. eigenvalues --   -0.31682  -0.28821  -0.27816  -0.27285  -0.27101
 Alpha  occ. eigenvalues --   -0.26106  -0.25030  -0.24318  -0.23765  -0.23166
 Alpha  occ. eigenvalues --   -0.23051  -0.22575  -0.22027  -0.21907  -0.21302
 Alpha  occ. eigenvalues --   -0.21110  -0.20309
 Alpha virt. eigenvalues --   -0.14367  -0.11658  -0.09447  -0.08970  -0.07936
 Alpha virt. eigenvalues --    0.00136   0.00417   0.01319   0.01551   0.02808
 Alpha virt. eigenvalues --    0.03015   0.03173   0.03772   0.04477   0.05244

 Mulliken charges:
               1
     1  Pt  -0.351403
     2  N   -0.011055
     3  N   -0.064354
     4  O   -0.093221
     5  O   -0.064922
     6  O   -0.087800
     7  O   -0.091912
     8  Br  -0.325215
     9  Br  -0.303010
    10  Br  -0.380331
    11  N   -0.036084
    12  O   -0.085351
    13  O   -0.105343
 Sum of Mulliken charges =  -2.00000

 Dipole moment (field-independent basis, Debye):
    X=              0.0417    Y=             -0.7190    Z=              0.1506  Tot=              0.7357
 Quadrupole moment (field-independent basis, Debye-Ang):
   XX=           -169.2306   YY=           -169.5007   ZZ=           -173.0849
   XY=              3.2124   XZ=             -1.9286   YZ=             -1.4073

 Normal termination of Gaussian 09 at Sat Oct 30 06:29:46 2021.
