 Gaussian 09, Revision D.01,
 Gaussian 09:  EM64L-G09RevD.01 24-Apr-2013

 ----------------------------------------------------------
 #PBEPBE/gen scf=maxcycle=200 NMR=GIAO Scrf=(solvent=water)
 ----------------------------------------------------------

 ------------
 estrutura 67
 ------------
 Symbolic Z-matrix:
 Charge = -2 Multiplicity = 1

                         Standard orientation:
 ---------------------------------------------------------------------
 Center     Atomic      Atomic             Coordinates (Angstroms)
 Number     Number       Type             X           Y           Z
 ---------------------------------------------------------------------
      1         78           0        0.128794   -0.000015   -0.000005
      2          7           0        0.217200   -2.124771    0.221508
      3          8           0        1.262501   -2.574262    0.673778
      4          8           0       -0.718589   -2.830484   -0.100327
      5          7           0        2.245505    0.000295    0.000139
      6          7           0        0.216169    2.124982   -0.221397
      7          8           0       -0.720390    2.830293    0.098967
      8          8           0        1.261938    2.574948   -0.672111
      9          8           0        2.814859    0.252653    1.043662
     10          8           0        2.815221   -0.251896   -1.043214
     11          7           0        0.080917   -0.204628   -2.110541
     12          8           0        0.346258   -1.290236   -2.599844
     13          8           0       -0.231143    0.767282   -2.781603
     14         35           0       -2.442118   -0.000545   -0.000247
     15          7           0        0.080089    0.204837    2.110612
     16          8           0       -0.232027   -0.767021    2.781724
     17          8           0        0.345001    1.290626    2.599813
 ---------------------------------------------------------------------

 SCF Done:  E(RPBE-PBE) =  -20704.9519559     A.U. after   22 cycles

      1  Pt   Isotropic = -2670.3877   Anisotropy =   776.4195

      2  N    Isotropic =  -219.1977   Anisotropy =   347.7290

      3  O    Isotropic =  -389.2354   Anisotropy =   475.4739

      4  O    Isotropic =  -391.4863   Anisotropy =   495.8944

      5  N    Isotropic =  -197.2642   Anisotropy =   303.4129

      6  N    Isotropic =  -219.2005   Anisotropy =   347.7615

      7  O    Isotropic =  -391.3718   Anisotropy =   495.7810

      8  O    Isotropic =  -389.2120   Anisotropy =   475.3160

      9  O    Isotropic =  -338.6291   Anisotropy =   436.4021

     10  O    Isotropic =  -338.6310   Anisotropy =   436.4772

     11  N    Isotropic =  -224.5689   Anisotropy =   359.5076

     12  O    Isotropic =  -384.6120   Anisotropy =   530.4253

     13  O    Isotropic =  -399.4466   Anisotropy =   546.5391

     14  Br   Isotropic =  2191.8862   Anisotropy =  1207.1447

     15  N    Isotropic =  -224.6006   Anisotropy =   359.5521

     16  O    Isotropic =  -399.4605   Anisotropy =   546.6296

     17  O    Isotropic =  -384.6498   Anisotropy =   530.4147

 The electronic state is 1-A.
 Alpha  occ. eigenvalues -- **********-478.57219-427.60487-414.93410-414.93403
 Alpha  occ. eigenvalues -- -414.93396 -99.98524 -92.14193 -92.14187 -92.14163
 Alpha  occ. eigenvalues --  -79.10114 -79.10090 -79.09972 -79.09960 -79.09955
 Alpha  occ. eigenvalues --  -61.49071 -55.67513 -55.67281 -55.67269 -20.90035
 Alpha  occ. eigenvalues --  -18.79044 -18.79043 -18.78071 -18.78070 -18.78049
 Alpha  occ. eigenvalues --  -18.78048 -18.77982 -18.77981 -18.77819 -18.77817
 Alpha  occ. eigenvalues --  -17.46500 -17.46488 -17.46441 -14.18381 -14.17046
 Alpha  occ. eigenvalues --  -14.17045 -14.16970 -14.16968 -11.64941 -11.64884
 Alpha  occ. eigenvalues --  -11.64436 -11.64414 -11.64399  -8.31931  -6.22697
 Alpha  occ. eigenvalues --   -6.22018  -6.21986  -3.19748  -3.19742  -3.19703
 Alpha  occ. eigenvalues --   -3.19462  -3.19457  -3.19448  -3.19114  -2.92919
 Alpha  occ. eigenvalues --   -2.43660  -2.43493  -2.43469  -2.42968  -2.42968
 Alpha  occ. eigenvalues --   -1.86965  -1.86890  -1.86843  -1.13449  -1.12297
 Alpha  occ. eigenvalues --   -1.12080  -1.12069  -1.12004  -0.97343  -0.95993
 Alpha  occ. eigenvalues --   -0.95882  -0.95842  -0.95742  -0.65005  -0.58243
 Alpha  occ. eigenvalues --   -0.57998  -0.57884  -0.56152  -0.56034  -0.48881
 Alpha  occ. eigenvalues --   -0.48250  -0.48232  -0.47857  -0.47233  -0.46639
 Alpha  occ. eigenvalues --   -0.46522  -0.46029  -0.45297  -0.45239  -0.45175
 Alpha  occ. eigenvalues --   -0.45104  -0.44929  -0.44740  -0.44085  -0.32534
 Alpha  occ. eigenvalues --   -0.32496  -0.32164  -0.31855  -0.29313  -0.28646
 Alpha  occ. eigenvalues --   -0.27742  -0.27603  -0.27510  -0.26853  -0.25172
 Alpha  occ. eigenvalues --   -0.25123  -0.24446  -0.23932  -0.23893  -0.23598
 Alpha  occ. eigenvalues --   -0.22388  -0.21693  -0.21411  -0.20138  -0.19960
 Alpha virt. eigenvalues --   -0.12237  -0.10612  -0.09215  -0.09043  -0.08783
 Alpha virt. eigenvalues --   -0.08130  -0.08110   0.01141   0.02160   0.02183
 Alpha virt. eigenvalues --    0.04537   0.04880   0.04911   0.05209   0.05591

 Mulliken charges:
               1
     1  Pt  -0.140611
     2  N   -0.062808
     3  O   -0.118359
     4  O   -0.100682
     5  N   -0.088320
     6  N   -0.062777
     7  O   -0.100686
     8  O   -0.118409
     9  O   -0.100733
    10  O   -0.100739
    11  N   -0.093074
    12  O   -0.103845
    13  O   -0.112949
    14  Br  -0.386090
    15  N   -0.093133
    16  O   -0.112900
    17  O   -0.103884
 Sum of Mulliken charges =  -2.00000

 Dipole moment (field-independent basis, Debye):
    X=             -0.0582    Y=             -0.0017    Z=             -0.0008  Tot=              0.0583
 Quadrupole moment (field-independent basis, Debye-Ang):
   XX=           -166.4851   YY=           -170.8479   ZZ=           -167.6376
   XY=              0.0004   XZ=             -0.0013   YZ=             -0.0400

 Normal termination of Gaussian 09 at Sat Oct 30 11:38:58 2021.
