 Gaussian 09, Revision D.01,
 Gaussian 09:  EM64L-G09RevD.01 24-Apr-2013

 ----------------------------------------------------------
 #PBEPBE/gen scf=maxcycle=200 NMR=GIAO Scrf=(solvent=water)
 ----------------------------------------------------------

 ------------
 estrutura 38
 ------------
 Symbolic Z-matrix:
 Charge = -2 Multiplicity = 1

                         Standard orientation:
 ---------------------------------------------------------------------
 Center     Atomic      Atomic             Coordinates (Angstroms)
 Number     Number       Type             X           Y           Z
 ---------------------------------------------------------------------
      1         78           0        0.008564   -0.189487    0.000078
      2         35           0        2.547957   -0.012082   -0.000089
      3         35           0       -0.104950    2.341393   -0.000759
      4          7           0        0.009192   -0.203452   -2.127973
      5          8           0       -0.756875    0.535226   -2.726157
      6          8           0        0.774453   -0.957842   -2.706626
      7         35           0       -2.531182   -0.376775    0.000043
      8          7           0        0.009170   -0.201747    2.128108
      9          8           0        0.774583   -0.955494    2.707392
     10          8           0       -0.757040    0.537285    2.725663
     11         17           0        0.118156   -2.587987    0.001115
 ---------------------------------------------------------------------

 SCF Done:  E(RPBE-PBE) =  -25685.2854966     A.U. after   19 cycles

      1  Pt   Isotropic =  -169.2345   Anisotropy =  1760.0757

      2  Br   Isotropic =  1502.9105   Anisotropy =  2190.8460

      3  Br   Isotropic =  1700.4573   Anisotropy =  1854.1533

      4  N    Isotropic =  -207.8134   Anisotropy =   322.4196

      5  O    Isotropic =  -420.0716   Anisotropy =   512.2382

      6  O    Isotropic =  -416.5646   Anisotropy =   513.8370

      7  Br   Isotropic =  1498.6768   Anisotropy =  2183.4852

      8  N    Isotropic =  -207.8050   Anisotropy =   322.4071

      9  O    Isotropic =  -416.5594   Anisotropy =   513.8119

     10  O    Isotropic =  -420.0731   Anisotropy =   512.2210

     11  Cl   Isotropic =   618.7169   Anisotropy =   669.6884

 The electronic state is 1-A.
 Alpha  occ. eigenvalues -- **********-478.58560-478.58492-478.58477-427.60367
 Alpha  occ. eigenvalues -- -414.93278-414.93271-414.93266-100.53646 -99.98384
 Alpha  occ. eigenvalues --  -92.14049 -92.14040 -92.14030 -79.09982 -79.09967
 Alpha  occ. eigenvalues --  -79.09836 -79.09818 -79.09812 -61.50390 -61.50321
 Alpha  occ. eigenvalues --  -61.50306 -55.68889 -55.68816 -55.68800 -55.68571
 Alpha  occ. eigenvalues --  -55.68569 -55.68504 -55.68503 -55.68490 -55.68489
 Alpha  occ. eigenvalues --  -20.89841 -18.78146 -18.78145 -18.78132 -18.78132
 Alpha  occ. eigenvalues --  -17.46297 -17.46277 -17.46259 -14.17310 -14.17310
 Alpha  occ. eigenvalues --  -11.64764 -11.64723 -11.64242 -11.64181 -11.64174
 Alpha  occ. eigenvalues --   -9.11479  -8.33235  -8.33165  -8.33150  -6.95426
 Alpha  occ. eigenvalues --   -6.94589  -6.94588  -6.24153  -6.24072  -6.24054
 Alpha  occ. eigenvalues --   -6.23231  -6.23228  -6.23165  -6.23164  -6.23152
 Alpha  occ. eigenvalues --   -6.23151  -3.19569  -3.19530  -3.19527  -3.19263
 Alpha  occ. eigenvalues --   -3.19241  -3.19216  -3.18864  -2.92542  -2.45071
 Alpha  occ. eigenvalues --   -2.44993  -2.44976  -2.44838  -2.44836  -2.44764
 Alpha  occ. eigenvalues --   -2.44762  -2.44747  -2.44747  -2.44159  -2.44159
 Alpha  occ. eigenvalues --   -2.44097  -2.44096  -2.44084  -2.44083  -1.86513
 Alpha  occ. eigenvalues --   -1.86474  -1.86386  -1.12278  -1.12185  -0.95855
 Alpha  occ. eigenvalues --   -0.95840  -0.69068  -0.66457  -0.65711  -0.65568
 Alpha  occ. eigenvalues --   -0.58154  -0.56181  -0.48068  -0.46618  -0.45904
 Alpha  occ. eigenvalues --   -0.45772  -0.45267  -0.45080  -0.37274  -0.35011
 Alpha  occ. eigenvalues --   -0.34318  -0.33210  -0.32180  -0.28217  -0.27985
 Alpha  occ. eigenvalues --   -0.27807  -0.27496  -0.26179  -0.24670  -0.23875
 Alpha  occ. eigenvalues --   -0.23777  -0.23540  -0.22995  -0.22830  -0.22802
 Alpha  occ. eigenvalues --   -0.22323  -0.21571  -0.21175  -0.20476
 Alpha virt. eigenvalues --   -0.15374  -0.12208  -0.09155  -0.08059  -0.00225
 Alpha virt. eigenvalues --    0.00457   0.00792   0.01518   0.02755   0.02870
 Alpha virt. eigenvalues --    0.03029   0.03712   0.04241   0.05114   0.05167

 Mulliken charges:
               1
     1  Pt  -0.430726
     2  Br  -0.273881
     3  Br  -0.268904
     4  N   -0.027983
     5  O   -0.095946
     6  O   -0.102492
     7  Br  -0.287921
     8  N   -0.027978
     9  O   -0.102491
    10  O   -0.095930
    11  Cl  -0.285748
 Sum of Mulliken charges =  -2.00000

 Dipole moment (field-independent basis, Debye):
    X=             -0.0689    Y=              2.1387    Z=             -0.0006  Tot=              2.1398
 Quadrupole moment (field-independent basis, Debye-Ang):
   XX=           -163.5806   YY=           -163.5569   ZZ=           -168.1316
   XY=              3.7399   XZ=             -0.0015   YZ=             -0.0022

 Normal termination of Gaussian 09 at Sat Oct 30 05:01:56 2021.
