 Gaussian 09, Revision D.01,
 Gaussian 09:  EM64L-G09RevD.01 24-Apr-2013

 ----------------------------------------------------------
 #PBEPBE/gen scf=maxcycle=200 NMR=GIAO Scrf=(solvent=water)
 ----------------------------------------------------------

 ------------
 estrutura 28
 ------------
 Symbolic Z-matrix:
 Charge = -2 Multiplicity = 1

                         Standard orientation:
 ---------------------------------------------------------------------
 Center     Atomic      Atomic             Coordinates (Angstroms)
 Number     Number       Type             X           Y           Z
 ---------------------------------------------------------------------
      1         78           0       -0.123472   -0.226841    0.011947
      2         17           0        0.142100   -2.611347    0.137285
      3         35           0       -0.410365    2.282598   -0.132366
      4          7           0       -2.215246   -0.480215    0.015591
      5          8           0       -2.878242    0.207658    0.767081
      6          8           0       -2.692370   -1.312579   -0.730334
      7         17           0       -0.102669   -0.325622   -2.373768
      8         17           0       -0.131918   -0.127044    2.399368
      9         35           0        2.446785    0.059765    0.015109
 ---------------------------------------------------------------------

 SCF Done:  E(RPBE-PBE) =  -23832.0845970     A.U. after   20 cycles

      1  Pt   Isotropic =  -404.0807   Anisotropy =   701.6001

      2  Cl   Isotropic =   550.3078   Anisotropy =   792.9394

      3  Br   Isotropic =  1522.3102   Anisotropy =  2165.4266

      4  N    Isotropic =  -182.1489   Anisotropy =   254.3238

      5  O    Isotropic =  -382.5141   Anisotropy =   424.5521

      6  O    Isotropic =  -378.8198   Anisotropy =   425.4813

      7  Cl   Isotropic =   651.4031   Anisotropy =   633.3824

      8  Cl   Isotropic =   648.5000   Anisotropy =   631.8200

      9  Br   Isotropic =  2191.4301   Anisotropy =  1153.8015

 The electronic state is 1-A.
 Alpha  occ. eigenvalues -- **********-478.58824-478.57502-427.60792-414.93705
 Alpha  occ. eigenvalues -- -414.93694-414.93683-100.54065-100.54045-100.53879
 Alpha  occ. eigenvalues --  -99.98801 -92.14472 -92.14455 -92.14442 -79.10418
 Alpha  occ. eigenvalues --  -79.10383 -79.10243 -79.10239 -79.10227 -61.50648
 Alpha  occ. eigenvalues --  -61.49335 -55.69153 -55.68829 -55.68825 -55.67797
 Alpha  occ. eigenvalues --  -55.67534 -55.67533 -20.90246 -18.79763 -18.79742
 Alpha  occ. eigenvalues --  -17.46715 -17.46681 -17.46651 -14.19272 -11.65219
 Alpha  occ. eigenvalues --  -11.65126 -11.64612 -11.64584 -11.64567  -9.11886
 Alpha  occ. eigenvalues --   -9.11865  -9.11701  -8.33490  -8.32177  -6.95856
 Alpha  occ. eigenvalues --   -6.95833  -6.95655  -6.94991  -6.94981  -6.94972
 Alpha  occ. eigenvalues --   -6.94961  -6.94814  -6.94804  -6.24421  -6.23483
 Alpha  occ. eigenvalues --   -6.23473  -6.22989  -6.22226  -6.22224  -3.19997
 Alpha  occ. eigenvalues --   -3.19964  -3.19922  -3.19669  -3.19632  -3.19609
 Alpha  occ. eigenvalues --   -3.19231  -2.92884  -2.45336  -2.45100  -2.45093
 Alpha  occ. eigenvalues --   -2.44403  -2.44403  -2.43935  -2.43742  -2.43741
 Alpha  occ. eigenvalues --   -2.43180  -2.43179  -1.86864  -1.86757  -1.86697
 Alpha  occ. eigenvalues --   -1.14032  -0.97799  -0.70036  -0.68923  -0.68845
 Alpha  occ. eigenvalues --   -0.66173  -0.64897  -0.58447  -0.48697  -0.47815
 Alpha  occ. eigenvalues --   -0.46561  -0.38148  -0.36117  -0.34934  -0.34100
 Alpha  occ. eigenvalues --   -0.33494  -0.30962  -0.29147  -0.29033  -0.28699
 Alpha  occ. eigenvalues --   -0.25597  -0.25044  -0.24300  -0.24018  -0.23946
 Alpha  occ. eigenvalues --   -0.23228  -0.23205  -0.22933  -0.22532  -0.22011
 Alpha  occ. eigenvalues --   -0.21786  -0.21511
 Alpha virt. eigenvalues --   -0.15265  -0.13836  -0.09625  -0.00729   0.00758
 Alpha virt. eigenvalues --    0.01088   0.01388   0.03130   0.03318   0.03380
 Alpha virt. eigenvalues --    0.03721   0.03776   0.06016   0.06198   0.06367

 Mulliken charges:
               1
     1  Pt  -0.262433
     2  Cl  -0.307119
     3  Br  -0.277475
     4  N   -0.021277
     5  O   -0.077303
     6  O   -0.085873
     7  Cl  -0.284020
     8  Cl  -0.289629
     9  Br  -0.394871
 Sum of Mulliken charges =  -2.00000

 Dipole moment (field-independent basis, Debye):
    X=             -0.9774    Y=              2.2949    Z=             -0.1514  Tot=              2.4989
 Quadrupole moment (field-independent basis, Debye-Ang):
   XX=           -154.7431   YY=           -152.7086   ZZ=           -151.8087
   XY=             -0.2382   XZ=              0.2368   YZ=             -1.5989

 Normal termination of Gaussian 09 at Sat Oct 30 02:22:08 2021.
