 Gaussian 09, Revision D.01,
 Gaussian 09:  EM64L-G09RevD.01 24-Apr-2013

 ----------------------------------------------------------
 #PBEPBE/gen scf=maxcycle=200 NMR=GIAO Scrf=(solvent=water)
 ----------------------------------------------------------

 ------------
 estrutura 44
 ------------
 Symbolic Z-matrix:
 Charge = -2 Multiplicity = 1

                         Standard orientation:
 ---------------------------------------------------------------------
 Center     Atomic      Atomic             Coordinates (Angstroms)
 Number     Number       Type             X           Y           Z
 ---------------------------------------------------------------------
      1         78           0       -0.103420   -0.213156   -0.107128
      2         17           0        0.000592    0.140251   -2.508148
      3          7           0       -2.183022   -0.563169   -0.233608
      4          7           0       -0.211161   -0.540683    1.960431
      5          8           0       -2.634206   -1.485572    0.420059
      6          8           0       -2.860499    0.149588   -0.946428
      7          8           0        0.640779   -1.223964    2.493306
      8          8           0       -1.143276   -0.040110    2.564343
      9         17           0        0.269414   -2.557717   -0.472124
     10         35           0        2.437512    0.202619    0.036493
     11         35           0       -0.488553    2.261681    0.268725
 ---------------------------------------------------------------------

 SCF Done:  E(RPBE-PBE) =  -23577.3031279     A.U. after   20 cycles

      1  Pt   Isotropic = -1253.9926   Anisotropy =  1081.4712

      2  Cl   Isotropic =   875.4979   Anisotropy =   285.2199

      3  N    Isotropic =  -186.9647   Anisotropy =   265.7160

      4  N    Isotropic =  -182.4153   Anisotropy =   261.2506

      5  O    Isotropic =  -376.0833   Anisotropy =   416.6691

      6  O    Isotropic =  -380.4387   Anisotropy =   438.3233

      7  O    Isotropic =  -389.4216   Anisotropy =   432.1706

      8  O    Isotropic =  -389.1145   Anisotropy =   411.5938

      9  Cl   Isotropic =   578.2055   Anisotropy =   759.2651

     10  Br   Isotropic =  2192.5993   Anisotropy =  1156.9894

     11  Br   Isotropic =  1607.4481   Anisotropy =  2059.8293

 The electronic state is 1-A.
 Alpha  occ. eigenvalues -- **********-478.58466-478.57439-427.60652-414.93568
 Alpha  occ. eigenvalues -- -414.93556-414.93552-100.53588-100.52704 -99.98671
 Alpha  occ. eigenvalues --  -92.14347 -92.14328 -92.14304 -79.10275 -79.10247
 Alpha  occ. eigenvalues --  -79.10125 -79.10103 -79.10095 -61.50299 -61.49277
 Alpha  occ. eigenvalues --  -55.68789 -55.68484 -55.68482 -55.67736 -55.67478
 Alpha  occ. eigenvalues --  -55.67473 -20.90135 -18.79650 -18.79592 -18.79537
 Alpha  occ. eigenvalues --  -18.79447 -17.46613 -17.46573 -17.46532 -14.19147
 Alpha  occ. eigenvalues --  -14.19040 -11.65072 -11.65008 -11.64537 -11.64478
 Alpha  occ. eigenvalues --  -11.64463  -9.11430  -9.10552  -8.33148  -8.32124
 Alpha  occ. eigenvalues --   -6.95357  -6.94549  -6.94547  -6.94412  -6.93710
 Alpha  occ. eigenvalues --   -6.93697  -6.24043  -6.23155  -6.23151  -6.22931
 Alpha  occ. eigenvalues --   -6.22181  -6.22169  -3.19873  -3.19841  -3.19807
 Alpha  occ. eigenvalues --   -3.19544  -3.19533  -3.19526  -3.19156  -2.92845
 Alpha  occ. eigenvalues --   -2.44969  -2.44744  -2.44742  -2.44088  -2.44088
 Alpha  occ. eigenvalues --   -2.43880  -2.43692  -2.43683  -2.43131  -2.43131
 Alpha  occ. eigenvalues --   -1.86848  -1.86753  -1.86685  -1.13937  -1.13735
 Alpha  occ. eigenvalues --   -0.97721  -0.97491  -0.69133  -0.68046  -0.65973
 Alpha  occ. eigenvalues --   -0.64889  -0.58476  -0.58313  -0.49128  -0.48635
 Alpha  occ. eigenvalues --   -0.47802  -0.46993  -0.46539  -0.46303  -0.36917
 Alpha  occ. eigenvalues --   -0.33968  -0.33911  -0.33662  -0.32942  -0.30280
 Alpha  occ. eigenvalues --   -0.29216  -0.28488  -0.28042  -0.25667  -0.25361
 Alpha  occ. eigenvalues --   -0.24286  -0.24113  -0.23343  -0.23158  -0.23084
 Alpha  occ. eigenvalues --   -0.22771  -0.22330  -0.22096  -0.21698  -0.21339
 Alpha virt. eigenvalues --   -0.14466  -0.13009  -0.09645  -0.09494  -0.00413
 Alpha virt. eigenvalues --    0.00734   0.01302   0.01685   0.03133   0.03348
 Alpha virt. eigenvalues --    0.03445   0.03827   0.04633   0.06190   0.06336

 Mulliken charges:
               1
     1  Pt  -0.217202
     2  Cl  -0.377589
     3  N   -0.014834
     4  N   -0.015194
     5  O   -0.089290
     6  O   -0.089955
     7  O   -0.087479
     8  O   -0.075410
     9  Cl  -0.354047
    10  Br  -0.388541
    11  Br  -0.290458
 Sum of Mulliken charges =  -2.00000

 Dipole moment (field-independent basis, Debye):
    X=             -0.9329    Y=              1.7636    Z=              2.6823  Tot=              3.3430
 Quadrupole moment (field-independent basis, Debye-Ang):
   XX=           -159.9544   YY=           -157.5184   ZZ=           -158.8283
   XY=              1.1057   XZ=              0.2807   YZ=              1.6222

 Normal termination of Gaussian 09 at Wed May 11 14:30:42 2022.
