 Gaussian 09, Revision D.01,
 Gaussian 09:  EM64L-G09RevD.01 24-Apr-2013

 ----------------------------------------------------------
 #PBEPBE/gen scf=maxcycle=200 NMR=GIAO Scrf=(solvent=water)
 ----------------------------------------------------------

 ------------
 estrutura 42
 ------------
 Symbolic Z-matrix:
 Charge = -2 Multiplicity = 1

                         Standard orientation:
 ---------------------------------------------------------------------
 Center     Atomic      Atomic             Coordinates (Angstroms)
 Number     Number       Type             X           Y           Z
 ---------------------------------------------------------------------
      1         78           0       -0.147575   -0.080897    0.020447
      2          7           0       -2.253608   -0.150809    0.097217
      3          7           0       -0.261889    1.980850   -0.329378
      4          8           0       -2.822574    0.738022    0.703769
      5          8           0       -2.829562   -1.061158   -0.461948
      6          8           0        0.472779    2.725230    0.288736
      7          8           0       -1.077745    2.367672   -1.146436
      8         35           0        2.430036    0.006292   -0.091758
      9         17           0       -0.107699    0.299856    2.378831
     10         17           0       -0.035299   -2.475136    0.437658
     11         17           0       -0.202594   -0.464641   -2.335971
 ---------------------------------------------------------------------

 SCF Done:  E(RPBE-PBE) =  -21469.3152401     A.U. after   20 cycles

      1  Pt   Isotropic = -1532.1154   Anisotropy =   798.8009

      2  N    Isotropic =  -185.7308   Anisotropy =   263.4681

      3  N    Isotropic =  -181.7578   Anisotropy =   259.9146

      4  O    Isotropic =  -372.0876   Anisotropy =   418.4199

      5  O    Isotropic =  -371.8402   Anisotropy =   440.2023

      6  O    Isotropic =  -384.9543   Anisotropy =   434.2842

      7  O    Isotropic =  -379.4617   Anisotropy =   413.1969

      8  Br   Isotropic =  2161.8442   Anisotropy =  1214.4865

      9  Cl   Isotropic =   634.6238   Anisotropy =   675.0852

     10  Cl   Isotropic =   858.6054   Anisotropy =   323.6325

     11  Cl   Isotropic =   632.5083   Anisotropy =   676.6203

 The electronic state is 1-A.
 Alpha  occ. eigenvalues -- **********-478.57445-427.60846-414.93758-414.93753
 Alpha  occ. eigenvalues -- -414.93747-100.53761-100.53755-100.52697 -99.98864
 Alpha  occ. eigenvalues --  -92.14536 -92.14520 -92.14503 -79.10467 -79.10448
 Alpha  occ. eigenvalues --  -79.10316 -79.10295 -79.10288 -61.49284 -55.67741
 Alpha  occ. eigenvalues --  -55.67486 -55.67481 -20.90332 -18.79771 -18.79665
 Alpha  occ. eigenvalues --  -18.79627 -18.79548 -17.46800 -17.46766 -17.46742
 Alpha  occ. eigenvalues --  -14.19226 -14.19148 -11.65267 -11.65223 -11.64728
 Alpha  occ. eigenvalues --  -11.64668 -11.64656  -9.11605  -9.11597  -9.10544
 Alpha  occ. eigenvalues --   -8.32130  -6.95544  -6.95535  -6.94718  -6.94715
 Alpha  occ. eigenvalues --   -6.94711  -6.94709  -6.94402  -6.93703  -6.93690
 Alpha  occ. eigenvalues --   -6.22933  -6.22190  -6.22178  -3.20067  -3.20043
 Alpha  occ. eigenvalues --   -3.20016  -3.19748  -3.19733  -3.19711  -3.19343
 Alpha  occ. eigenvalues --   -2.93039  -2.43883  -2.43696  -2.43687  -2.43141
 Alpha  occ. eigenvalues --   -2.43141  -1.87011  -1.86959  -1.86892  -1.14043
 Alpha  occ. eigenvalues --   -1.13841  -0.97846  -0.97621  -0.69717  -0.68694
 Alpha  occ. eigenvalues --   -0.68013  -0.64952  -0.58548  -0.58415  -0.49217
 Alpha  occ. eigenvalues --   -0.48747  -0.47918  -0.47086  -0.46616  -0.46390
 Alpha  occ. eigenvalues --   -0.37576  -0.34311  -0.34113  -0.33845  -0.33032
 Alpha  occ. eigenvalues --   -0.30363  -0.29281  -0.28814  -0.28469  -0.25986
 Alpha  occ. eigenvalues --   -0.25574  -0.24657  -0.24459  -0.23448  -0.23297
 Alpha  occ. eigenvalues --   -0.23214  -0.23029  -0.22504  -0.22390  -0.21888
 Alpha  occ. eigenvalues --   -0.21690
 Alpha virt. eigenvalues --   -0.14279  -0.13054  -0.09715  -0.09531  -0.00339
 Alpha virt. eigenvalues --    0.01103   0.01472   0.01952   0.03556   0.03647
 Alpha virt. eigenvalues --    0.04244   0.04648   0.04805   0.06592   0.07265

 Mulliken charges:
               1
     1  Pt  -0.098512
     2  N   -0.052664
     3  N   -0.026486
     4  O   -0.085018
     5  O   -0.089810
     6  O   -0.087891
     7  O   -0.087016
     8  Br  -0.391278
     9  Cl  -0.347029
    10  Cl  -0.394262
    11  Cl  -0.340035
 Sum of Mulliken charges =  -2.00000

 Dipole moment (field-independent basis, Debye):
    X=             -0.5701    Y=              2.4603    Z=             -0.4245  Tot=              2.5609
 Quadrupole moment (field-independent basis, Debye-Ang):
   XX=           -153.1229   YY=           -153.5828   ZZ=           -149.8636
   XY=             -0.0185   XZ=             -1.5069   YZ=             -1.2710

 Normal termination of Gaussian 09 at Wed May 11 14:21:27 2022.
