 Gaussian 09, Revision D.01,
 Gaussian 09:  EM64L-G09RevD.01 24-Apr-2013

 ----------------------------------------------------------
 #PBEPBE/gen scf=maxcycle=200 NMR=GIAO Scrf=(solvent=water)
 ----------------------------------------------------------

 ------------
 estrutura 21
 ------------
 Symbolic Z-matrix:
 Charge = -2 Multiplicity = 1

                         Standard orientation:
 ---------------------------------------------------------------------
 Center     Atomic      Atomic             Coordinates (Angstroms)
 Number     Number       Type             X           Y           Z
 ---------------------------------------------------------------------
      1         78           0        0.000582   -0.001281    0.348067
      2         35           0       -0.227155    2.061435   -1.094917
      3         17           0       -1.789098    0.780167    1.750385
      4         17           0        1.584183    1.146604    1.745980
      5         17           0        0.215520   -1.958547    1.725995
      6         35           0       -1.672334   -1.216349   -1.106558
      7         35           0        1.893040   -0.826797   -1.110793
 ---------------------------------------------------------------------

 SCF Done:  E(RPBE-PBE) =  -26194.8544781     A.U. after   18 cycles

      1  Pt   Isotropic =   701.6064   Anisotropy =     3.5078

      2  Br   Isotropic =  1537.6278   Anisotropy =  2116.4691

      3  Cl   Isotropic =   556.0004   Anisotropy =   774.7163

      4  Cl   Isotropic =   557.7626   Anisotropy =   771.3517

      5  Cl   Isotropic =   558.1505   Anisotropy =   769.9168

      6  Br   Isotropic =  1529.9675   Anisotropy =  2127.7970

      7  Br   Isotropic =  1530.7229   Anisotropy =  2126.4837

 The electronic state is 1-A.
 Alpha  occ. eigenvalues -- **********-478.59035-478.59034-478.59032-427.60808
 Alpha  occ. eigenvalues -- -414.93709-414.93709-414.93708-100.54029-100.54028
 Alpha  occ. eigenvalues -- -100.54023 -99.98809 -92.14465 -92.14464 -92.14464
 Alpha  occ. eigenvalues --  -79.10415 -79.10415 -79.10244 -79.10243 -79.10243
 Alpha  occ. eigenvalues --  -61.50853 -61.50852 -61.50851 -55.69367 -55.69365
 Alpha  occ. eigenvalues --  -55.69364 -55.69028 -55.69028 -55.69028 -55.69028
 Alpha  occ. eigenvalues --  -55.69026 -55.69026 -20.90229 -17.46666 -17.46665
 Alpha  occ. eigenvalues --  -17.46664 -11.65170 -11.65170 -11.64561 -11.64560
 Alpha  occ. eigenvalues --  -11.64560  -9.11837  -9.11836  -9.11831  -8.33689
 Alpha  occ. eigenvalues --   -8.33689  -8.33687  -6.95809  -6.95807  -6.95802
 Alpha  occ. eigenvalues --   -6.94939  -6.94939  -6.94938  -6.94938  -6.94933
 Alpha  occ. eigenvalues --   -6.94932  -6.24643  -6.24642  -6.24641  -6.23666
 Alpha  occ. eigenvalues --   -6.23666  -6.23665  -6.23665  -6.23663  -6.23663
 Alpha  occ. eigenvalues --   -3.19949  -3.19948  -3.19946  -3.19613  -3.19613
 Alpha  occ. eigenvalues --   -3.19612  -3.19189  -2.92798  -2.45551  -2.45549
 Alpha  occ. eigenvalues --   -2.45548  -2.45304  -2.45303  -2.45303  -2.45302
 Alpha  occ. eigenvalues --   -2.45301  -2.45301  -2.44585  -2.44585  -2.44585
 Alpha  occ. eigenvalues --   -2.44585  -2.44582  -2.44582  -1.86663  -1.86661
 Alpha  occ. eigenvalues --   -1.86659  -0.69979  -0.68879  -0.68872  -0.66651
 Alpha  occ. eigenvalues --   -0.66057  -0.66054  -0.37720  -0.37713  -0.34610
 Alpha  occ. eigenvalues --   -0.34605  -0.34602  -0.33389  -0.28982  -0.28979
 Alpha  occ. eigenvalues --   -0.28966  -0.24097  -0.24036  -0.24036  -0.23892
 Alpha  occ. eigenvalues --   -0.23888  -0.23858  -0.23130  -0.23121  -0.23117
 Alpha  occ. eigenvalues --   -0.21742  -0.21740  -0.21699
 Alpha virt. eigenvalues --   -0.15427  -0.15419  -0.01045   0.00735   0.00736
 Alpha virt. eigenvalues --    0.00936   0.03027   0.03028   0.03149   0.03150
 Alpha virt. eigenvalues --    0.03287   0.05325   0.05326   0.05530   0.05704

 Mulliken charges:
               1
     1  Pt  -0.386698
     2  Br  -0.268764
     3  Cl  -0.269142
     4  Cl  -0.269463
     5  Cl  -0.268618
     6  Br  -0.268697
     7  Br  -0.268617
 Sum of Mulliken charges =  -2.00000

 Dipole moment (field-independent basis, Debye):
    X=             -0.0152    Y=              0.0182    Z=             -4.0962  Tot=              4.0963
 Quadrupole moment (field-independent basis, Debye-Ang):
   XX=           -153.5228   YY=           -153.5094   ZZ=           -155.2675
   XY=              0.0139   XZ=             -0.0164   YZ=              0.0038

 Normal termination of Gaussian 09 at Sat Oct 30 01:03:44 2021.
