 Gaussian 16, Revision C.01,
 Gaussian 16:  EM64L-G16RevC.01  3-Jul-2019

 ----------------------------------------------------------
 #PBEPBE/gen scf=maxcycle=200 NMR=GIAO Scrf=(solvent=water)
 ----------------------------------------------------------

 ------------
 estrutura 64
 ------------
 Symbolic Z-matrix:
 Charge = -2 Multiplicity = 1

                         Standard orientation:
 ---------------------------------------------------------------------
 Center     Atomic      Atomic             Coordinates (Angstroms)
 Number     Number       Type             X           Y           Z
 ---------------------------------------------------------------------
      1         78           0       -0.138726    0.016703   -0.070839
      2          7           0       -0.029110    2.124304    0.189199
      3          8           0       -0.750012    2.611815    1.049431
      4          8           0        0.720140    2.794449   -0.498389
      5          7           0       -0.132059   -0.186784    2.024887
      6          7           0       -0.279383   -2.095483   -0.289128
      7          8           0       -1.010413   -2.551572   -1.152816
      8          8           0        0.368693   -2.802481    0.466681
      9          8           0        0.635424    0.508170    2.663733
     10          8           0       -0.897428   -0.985236    2.529410
     11         17           0       -0.161686    0.270914   -2.481758
     12          7           0       -2.252265    0.169384   -0.095687
     13          8           0       -2.741056    1.144726   -0.632694
     14          8           0       -2.902300   -0.725756    0.406461
     15         35           0        2.429561   -0.169750   -0.106974
 ---------------------------------------------------------------------

 SCF Done:  E(RPBE-PBE) =  -20959.7520385     A.U. after   22 cycles

      1  Pt   Isotropic = -2428.4070   Anisotropy =   685.6740

      2  N    Isotropic =  -217.2619   Anisotropy =   343.0864

      3  O    Isotropic =  -385.6089   Anisotropy =   485.0537

      4  O    Isotropic =  -405.2136   Anisotropy =   539.3434

      5  N    Isotropic =  -191.4305   Anisotropy =   288.2726

      6  N    Isotropic =  -215.5221   Anisotropy =   341.0510

      7  O    Isotropic =  -393.4946   Anisotropy =   516.0291

      8  O    Isotropic =  -400.2731   Anisotropy =   515.4708

      9  O    Isotropic =  -371.8319   Anisotropy =   478.4199

     10  O    Isotropic =  -356.8877   Anisotropy =   503.2561

     11  Cl   Isotropic =   844.7861   Anisotropy =   358.6314

     12  N    Isotropic =  -195.3959   Anisotropy =   289.9418

     13  O    Isotropic =  -363.4623   Anisotropy =   483.5265

     14  O    Isotropic =  -354.4257   Anisotropy =   502.5372

     15  Br   Isotropic =  2185.3199   Anisotropy =  1221.1018

 The electronic state is 1-A.
 Alpha  occ. eigenvalues -- **********-478.57204-427.60568-414.93509-414.93502
 Alpha  occ. eigenvalues -- -414.93494-100.52466 -99.98587 -92.14268 -92.14242
 Alpha  occ. eigenvalues --  -92.14234 -79.10176 -79.10150 -79.10027 -79.10025
 Alpha  occ. eigenvalues --  -79.10010 -61.49040 -55.67484 -55.67245 -55.67240
 Alpha  occ. eigenvalues --  -20.90085 -18.79329 -18.79186 -18.79180 -18.79040
 Alpha  occ. eigenvalues --  -18.78102 -18.78001 -18.77960 -18.77929 -17.46560
 Alpha  occ. eigenvalues --  -17.46515 -17.46496 -14.18570 -14.18568 -14.17044
 Alpha  occ. eigenvalues --  -14.17035 -11.64994 -11.64932 -11.64469 -11.64467
 Alpha  occ. eigenvalues --  -11.64430  -9.10341  -8.31895  -6.94175  -6.93509
 Alpha  occ. eigenvalues --   -6.93493  -6.22668  -6.21970  -6.21956  -3.19807
 Alpha  occ. eigenvalues --   -3.19769  -3.19748  -3.19508  -3.19489  -3.19481
 Alpha  occ. eigenvalues --   -3.19143  -2.92907  -2.43628  -2.43452  -2.43442
 Alpha  occ. eigenvalues --   -2.42928  -2.42928  -1.86914  -1.86883  -1.86802
 Alpha  occ. eigenvalues --   -1.13637  -1.13445  -1.12122  -1.12052  -0.97511
 Alpha  occ. eigenvalues --   -0.97251  -0.95804  -0.95779  -0.68096  -0.64880
 Alpha  occ. eigenvalues --   -0.58123  -0.58108  -0.57996  -0.56093  -0.48994
 Alpha  occ. eigenvalues --   -0.48483  -0.48351  -0.47984  -0.47220  -0.46352
 Alpha  occ. eigenvalues --   -0.46002  -0.45862  -0.45439  -0.45103  -0.45051
 Alpha  occ. eigenvalues --   -0.45013  -0.33721  -0.33155  -0.32626  -0.32338
 Alpha  occ. eigenvalues --   -0.31790  -0.28770  -0.28636  -0.27707  -0.26923
 Alpha  occ. eigenvalues --   -0.26549  -0.25556  -0.24677  -0.24179  -0.24097
 Alpha  occ. eigenvalues --   -0.23345  -0.22806  -0.22729  -0.21930  -0.21849
 Alpha  occ. eigenvalues --   -0.21593  -0.20223
 Alpha virt. eigenvalues --   -0.12766  -0.11433  -0.09495  -0.09088  -0.08593
 Alpha virt. eigenvalues --   -0.08470   0.00657   0.01553   0.02102   0.02958
 Alpha virt. eigenvalues --    0.03933   0.04818   0.04922   0.05338   0.05434

 Mulliken charges:
               1
     1  Pt  -0.035877
     2  N   -0.081649
     3  O   -0.101763
     4  O   -0.113011
     5  N   -0.088952
     6  N   -0.096408
     7  O   -0.096106
     8  O   -0.096831
     9  O   -0.074760
    10  O   -0.081192
    11  Cl  -0.477242
    12  N   -0.122816
    13  O   -0.074215
    14  O   -0.080974
    15  Br  -0.378204
 Sum of Mulliken charges =  -2.00000

 Dipole moment (field-independent basis, Debye):
    X=             -0.3249    Y=             -0.2446    Z=              2.1900  Tot=              2.2274
 Quadrupole moment (field-independent basis, Debye-Ang):
   XX=           -162.0933   YY=           -165.7071   ZZ=           -161.6940
   XY=             -1.8028   XZ=             -0.6954   YZ=              1.2295

 Normal termination of Gaussian 16 at Wed Aug 13 13:08:58 2025.
