 Gaussian 09, Revision D.01,
 Gaussian 09:  EM64L-G09RevD.01 24-Apr-2013

 ----------------------------------------------------------
 #PBEPBE/gen scf=maxcycle=200 NMR=GIAO Scrf=(solvent=water)
 ----------------------------------------------------------

 ------------
 estrutura 24
 ------------
 Symbolic Z-matrix:
 Charge = -2 Multiplicity = 1

                         Standard orientation:
 ---------------------------------------------------------------------
 Center     Atomic      Atomic             Coordinates (Angstroms)
 Number     Number       Type             X           Y           Z
 ---------------------------------------------------------------------
      1         78           0        0.000000    0.000000    0.000000
      2         35           0        0.000000    2.546993    0.000000
      3         35           0       -2.546993    0.000000    0.000000
      4         35           0        0.000000   -2.546993    0.000000
      5         35           0        2.546993    0.000000    0.000000
      6         17           0        0.000000    0.000000    2.387758
      7         17           0        0.000000    0.000000   -2.387758
 ---------------------------------------------------------------------

 SCF Done:  E(RPBE-PBE) =  -28302.8428559     A.U. after   15 cycles

      1  Pt   Isotropic =   920.9662   Anisotropy =  1251.1607

      2  Br   Isotropic =  1312.2156   Anisotropy =  2455.3192

      3  Br   Isotropic =  1312.2152   Anisotropy =  2455.3197

      4  Br   Isotropic =  1312.2156   Anisotropy =  2455.3192

      5  Br   Isotropic =  1312.2152   Anisotropy =  2455.3197

      6  Cl   Isotropic =   714.0198   Anisotropy =   515.5942

      7  Cl   Isotropic =   714.0198   Anisotropy =   515.5942

 Unable to determine electronic state:  an orbital has unidentified symmetry.
 Alpha  occ. eigenvalues -- **********-478.58763-478.58762-478.58762-478.58762
 Alpha  occ. eigenvalues -- -427.60578-414.93494-414.93472-414.93472-100.54242
 Alpha  occ. eigenvalues -- -100.54242 -99.98581 -92.14259 -92.14225 -92.14225
 Alpha  occ. eigenvalues --  -79.10203 -79.10164 -79.10021 -79.10021 -79.10007
 Alpha  occ. eigenvalues --  -61.50582 -61.50582 -61.50582 -61.50582 -55.69089
 Alpha  occ. eigenvalues --  -55.69089 -55.69089 -55.69089 -55.68761 -55.68761
 Alpha  occ. eigenvalues --  -55.68761 -55.68761 -55.68760 -55.68760 -55.68760
 Alpha  occ. eigenvalues --  -55.68760 -20.89998 -17.46482 -17.46409 -17.46409
 Alpha  occ. eigenvalues --  -11.64982 -11.64880 -11.64341 -11.64341 -11.64319
 Alpha  occ. eigenvalues --   -9.12046  -9.12046  -8.33417  -8.33417  -8.33417
 Alpha  occ. eigenvalues --   -8.33417  -6.96033  -6.96033  -6.95139  -6.95139
 Alpha  occ. eigenvalues --   -6.95139  -6.95139  -6.24353  -6.24353  -6.24353
 Alpha  occ. eigenvalues --   -6.24353  -6.23404  -6.23404  -6.23404  -6.23404
 Alpha  occ. eigenvalues --   -6.23401  -6.23401  -6.23401  -6.23401  -3.19760
 Alpha  occ. eigenvalues --   -3.19692  -3.19692  -3.19391  -3.19391  -3.19356
 Alpha  occ. eigenvalues --   -3.18970  -2.92574  -2.45265  -2.45265  -2.45264
 Alpha  occ. eigenvalues --   -2.45264  -2.45026  -2.45026  -2.45026  -2.45025
 Alpha  occ. eigenvalues --   -2.45023  -2.45023  -2.45023  -2.45023  -2.44327
 Alpha  occ. eigenvalues --   -2.44327  -2.44327  -2.44327  -2.44327  -2.44327
 Alpha  occ. eigenvalues --   -2.44327  -2.44326  -1.86581  -1.86371  -1.86371
 Alpha  occ. eigenvalues --   -0.70012  -0.68955  -0.66737  -0.65796  -0.65749
 Alpha  occ. eigenvalues --   -0.65749  -0.37947  -0.36832  -0.34522  -0.34522
 Alpha  occ. eigenvalues --   -0.33957  -0.32998  -0.29247  -0.28611  -0.28611
 Alpha  occ. eigenvalues --   -0.24179  -0.24179  -0.23657  -0.23212  -0.23212
 Alpha  occ. eigenvalues --   -0.23163  -0.23063  -0.23023  -0.23023  -0.21739
 Alpha  occ. eigenvalues --   -0.21739  -0.21088
 Alpha virt. eigenvalues --   -0.15618  -0.15287  -0.01105   0.00516   0.00516
 Alpha virt. eigenvalues --    0.01016   0.02534   0.02738   0.03008   0.03008
 Alpha virt. eigenvalues --    0.03221   0.04763   0.04763   0.05397   0.05434

 Mulliken charges:
               1
     1  Pt  -0.344006
     2  Br  -0.289272
     3  Br  -0.289272
     4  Br  -0.289272
     5  Br  -0.289272
     6  Cl  -0.249454
     7  Cl  -0.249454
 Sum of Mulliken charges =  -2.00000

 Dipole moment (field-independent basis, Debye):
    X=              0.0000    Y=              0.0000    Z=              0.0000  Tot=              0.0000
 Quadrupole moment (field-independent basis, Debye-Ang):
   XX=           -160.3836   YY=           -160.3836   ZZ=           -159.5764
   XY=              0.0000   XZ=              0.0000   YZ=              0.0000

 Normal termination of Gaussian 09 at Sat Oct 30 01:31:08 2021.
