 Gaussian 09, Revision D.01,
 Gaussian 09:  EM64L-G09RevD.01 24-Apr-2013

 ----------------------------------------------------------
 #PBEPBE/gen scf=maxcycle=200 NMR=GIAO Scrf=(solvent=water)
 ----------------------------------------------------------

 ------------
 estrutura 29
 ------------
 Symbolic Z-matrix:
 Charge = -2 Multiplicity = 1

                         Standard orientation:
 ---------------------------------------------------------------------
 Center     Atomic      Atomic             Coordinates (Angstroms)
 Number     Number       Type             X           Y           Z
 ---------------------------------------------------------------------
      1         78           0        0.000067    0.290694   -0.102885
      2         17           0       -0.000404   -0.015543   -2.518469
      3         17           0        1.685309    1.987028   -0.324935
      4         35           0        1.783748   -1.494007    0.106078
      5         17           0       -1.684512    1.987969   -0.324686
      6         35           0       -1.784387   -1.493382    0.106503
      7          7           0        0.000429    0.575317    1.969855
      8          8           0        1.071089    0.659005    2.540757
      9          8           0       -1.070157    0.659312    2.540895
 ---------------------------------------------------------------------

 SCF Done:  E(RPBE-PBE) =  -23832.0848988     A.U. after   19 cycles

      1  Pt   Isotropic =  -339.6076   Anisotropy =  1530.5384

      2  Cl   Isotropic =   892.6810   Anisotropy =   263.4400

      3  Cl   Isotropic =   558.7780   Anisotropy =   774.4407

      4  Br   Isotropic =  1547.2727   Anisotropy =  2127.9257

      5  Cl   Isotropic =   558.6914   Anisotropy =   774.6193

      6  Br   Isotropic =  1547.1604   Anisotropy =  2128.1620

      7  N    Isotropic =  -176.2852   Anisotropy =   247.6069

      8  O    Isotropic =  -394.1016   Anisotropy =   413.9487

      9  O    Isotropic =  -394.1482   Anisotropy =   413.9171

 The electronic state is 1-A.
 Alpha  occ. eigenvalues -- **********-478.58785-478.58784-427.60826-414.93732
 Alpha  occ. eigenvalues -- -414.93729-414.93724-100.53850-100.53849-100.52766
 Alpha  occ. eigenvalues --  -99.98834 -92.14497 -92.14492 -92.14480 -79.10434
 Alpha  occ. eigenvalues --  -79.10433 -79.10282 -79.10264 -79.10263 -61.50610
 Alpha  occ. eigenvalues --  -61.50608 -55.69114 -55.69113 -55.68790 -55.68789
 Alpha  occ. eigenvalues --  -55.68786 -55.68785 -20.90278 -18.79677 -18.79676
 Alpha  occ. eigenvalues --  -17.46729 -17.46719 -17.46696 -14.19381 -11.65204
 Alpha  occ. eigenvalues --  -11.65202 -11.64655 -11.64607 -11.64601  -9.11674
 Alpha  occ. eigenvalues --   -9.11673  -9.10603  -8.33451  -8.33450  -6.95629
 Alpha  occ. eigenvalues --   -6.95628  -6.94787  -6.94786  -6.94776  -6.94775
 Alpha  occ. eigenvalues --   -6.94470  -6.93753  -6.93751  -6.24382  -6.24381
 Alpha  occ. eigenvalues --   -6.23444  -6.23443  -6.23434  -6.23433  -3.20005
 Alpha  occ. eigenvalues --   -3.19991  -3.19978  -3.19684  -3.19667  -3.19656
 Alpha  occ. eigenvalues --   -3.19266  -2.92914  -2.45297  -2.45296  -2.45061
 Alpha  occ. eigenvalues --   -2.45060  -2.45053  -2.45052  -2.44365  -2.44364
 Alpha  occ. eigenvalues --   -2.44364  -2.44363  -1.86849  -1.86809  -1.86750
 Alpha  occ. eigenvalues --   -1.13983  -0.97708  -0.69649  -0.68776  -0.68022
 Alpha  occ. eigenvalues --   -0.66303  -0.65860  -0.58603  -0.48761  -0.47837
 Alpha  occ. eigenvalues --   -0.46539  -0.37750  -0.36116  -0.34684  -0.34141
 Alpha  occ. eigenvalues --   -0.33629  -0.31568  -0.28978  -0.28789  -0.28444
 Alpha  occ. eigenvalues --   -0.25240  -0.24884  -0.23897  -0.23807  -0.23650
 Alpha  occ. eigenvalues --   -0.23389  -0.23260  -0.23199  -0.22953  -0.22211
 Alpha  occ. eigenvalues --   -0.21895  -0.21582
 Alpha virt. eigenvalues --   -0.15392  -0.13668  -0.09661  -0.00641   0.00764
 Alpha virt. eigenvalues --    0.00883   0.01519   0.03123   0.03125   0.03442
 Alpha virt. eigenvalues --    0.03459   0.04330   0.05391   0.05953   0.06810

 Mulliken charges:
               1
     1  Pt  -0.285875
     2  Cl  -0.370168
     3  Cl  -0.308081
     4  Br  -0.277222
     5  Cl  -0.308254
     6  Br  -0.277316
     7  N   -0.014795
     8  O   -0.079131
     9  O   -0.079158
 Sum of Mulliken charges =  -2.00000

 Dipole moment (field-independent basis, Debye):
    X=              0.0015    Y=             -3.0158    Z=              3.0736  Tot=              4.3061
 Quadrupole moment (field-independent basis, Debye-Ang):
   XX=           -153.7827   YY=           -151.5335   ZZ=           -154.7391
   XY=              0.0008   XZ=             -0.0009   YZ=              0.2634

 Normal termination of Gaussian 09 at Sat Oct 30 02:36:43 2021.
