 Gaussian 09, Revision D.01,
 Gaussian 09:  EM64L-G09RevD.01 24-Apr-2013

 ----------------------------------------------------------
 #PBEPBE/gen scf=maxcycle=200 NMR=GIAO Scrf=(solvent=water)
 ----------------------------------------------------------

 ------------
 estrutura 66
 ------------
 Symbolic Z-matrix:
 Charge = -2 Multiplicity = 1

                         Standard orientation:
 ---------------------------------------------------------------------
 Center     Atomic      Atomic             Coordinates (Angstroms)
 Number     Number       Type             X           Y           Z
 ---------------------------------------------------------------------
      1         78           0       -0.000023    0.000017   -0.084030
      2          7           0       -2.126070    0.208007   -0.009953
      3          8           0       -2.591769    0.633914    1.039076
      4          8           0       -2.815655   -0.094245   -0.963869
      5          7           0        0.000047   -0.000782    2.017573
      6          7           0        2.126105   -0.208161   -0.009974
      7          8           0        2.815864    0.095167   -0.963406
      8          8           0        2.591602   -0.635398    1.038618
      9          8           0        0.234244    1.046484    2.589230
     10          8           0       -0.234047   -1.048391    2.588612
     11          7           0       -0.193336   -2.110974   -0.141846
     12          8           0       -1.274413   -2.608510    0.125969
     13          8           0        0.779431   -2.772243   -0.471123
     14          7           0        0.193239    2.111106   -0.140175
     15          8           0       -0.779731    2.772630   -0.468325
     16          8           0        1.274456    2.608419    0.127480
     17         17           0        0.000121    0.001278   -2.505476
 ---------------------------------------------------------------------

 SCF Done:  E(RPBE-PBE) =  -18596.9652249     A.U. after   19 cycles

      1  Pt   Isotropic = -2806.0734   Anisotropy =   543.7030

      2  N    Isotropic =  -218.9035   Anisotropy =   348.9855

      3  O    Isotropic =  -386.2269   Anisotropy =   481.2518

      4  O    Isotropic =  -382.8511   Anisotropy =   507.1752

      5  N    Isotropic =  -196.2486   Anisotropy =   304.6485

      6  N    Isotropic =  -218.9115   Anisotropy =   348.9964

      7  O    Isotropic =  -382.8291   Anisotropy =   507.2136

      8  O    Isotropic =  -386.2590   Anisotropy =   481.2957

      9  O    Isotropic =  -344.3039   Anisotropy =   444.5167

     10  O    Isotropic =  -344.2587   Anisotropy =   444.5373

     11  N    Isotropic =  -224.6213   Anisotropy =   359.0617

     12  O    Isotropic =  -383.0789   Anisotropy =   528.0847

     13  O    Isotropic =  -395.0171   Anisotropy =   541.3167

     14  N    Isotropic =  -224.6202   Anisotropy =   359.0590

     15  O    Isotropic =  -394.9929   Anisotropy =   541.2704

     16  O    Isotropic =  -383.0648   Anisotropy =   528.0530

     17  Cl   Isotropic =   832.0263   Anisotropy =   384.8844

 The electronic state is 1-A.
 Alpha  occ. eigenvalues -- **********-427.60644-414.93566-414.93560-414.93557
 Alpha  occ. eigenvalues -- -100.52519 -99.98681 -92.14350 -92.14341 -92.14324
 Alpha  occ. eigenvalues --  -79.10269 -79.10254 -79.10128 -79.10118 -79.10111
 Alpha  occ. eigenvalues --  -20.90195 -18.78972 -18.78971 -18.78114 -18.78114
 Alpha  occ. eigenvalues --  -18.78100 -18.78100 -18.78044 -18.78044 -18.77854
 Alpha  occ. eigenvalues --  -18.77853 -17.46658 -17.46639 -17.46612 -14.18418
 Alpha  occ. eigenvalues --  -14.17071 -14.17071 -14.16993 -14.16992 -11.65096
 Alpha  occ. eigenvalues --  -11.65063 -11.64593 -11.64571 -11.64553  -9.10401
 Alpha  occ. eigenvalues --   -6.94225  -6.93581  -6.93549  -3.19909  -3.19898
 Alpha  occ. eigenvalues --   -3.19882  -3.19621  -3.19614  -3.19613  -3.19266
 Alpha  occ. eigenvalues --   -2.93081  -1.87106  -1.87056  -1.87023  -1.13398
 Alpha  occ. eigenvalues --   -1.12337  -1.12129  -1.12104  -1.12048  -0.97260
 Alpha  occ. eigenvalues --   -0.96042  -0.95946  -0.95893  -0.95808  -0.68187
 Alpha  occ. eigenvalues --   -0.58294  -0.58045  -0.57991  -0.56187  -0.56053
 Alpha  occ. eigenvalues --   -0.48901  -0.48315  -0.48233  -0.47921  -0.47267
 Alpha  occ. eigenvalues --   -0.46699  -0.46583  -0.46001  -0.45337  -0.45273
 Alpha  occ. eigenvalues --   -0.45223  -0.45133  -0.44967  -0.44768  -0.44134
 Alpha  occ. eigenvalues --   -0.33298  -0.32851  -0.32471  -0.31940  -0.29366
 Alpha  occ. eigenvalues --   -0.28634  -0.27737  -0.27661  -0.27536  -0.26910
 Alpha  occ. eigenvalues --   -0.25414  -0.25252  -0.24562  -0.24123  -0.24026
 Alpha  occ. eigenvalues --   -0.23727  -0.23266  -0.22587  -0.21551  -0.20177
 Alpha  occ. eigenvalues --   -0.20001
 Alpha virt. eigenvalues --   -0.11888  -0.10649  -0.09233  -0.09062  -0.08817
 Alpha virt. eigenvalues --   -0.08159  -0.08106   0.01895   0.03523   0.03647
 Alpha virt. eigenvalues --    0.03781   0.05396   0.05440   0.05465   0.05536

 Mulliken charges:
               1
     1  Pt   0.153233
     2  N   -0.087766
     3  O   -0.121418
     4  O   -0.105315
     5  N   -0.082354
     6  N   -0.087850
     7  O   -0.105295
     8  O   -0.121412
     9  O   -0.106140
    10  O   -0.106118
    11  N   -0.130296
    12  O   -0.105940
    13  O   -0.113743
    14  N   -0.130243
    15  O   -0.113758
    16  O   -0.105951
    17  Cl  -0.529634
 Sum of Mulliken charges =  -2.00000

 Dipole moment (field-independent basis, Debye):
    X=             -0.0005    Y=             -0.0009    Z=              1.8698  Tot=              1.8698
 Quadrupole moment (field-independent basis, Debye-Ang):
   XX=           -164.5977   YY=           -161.1789   ZZ=           -159.9435
   XY=             -0.0074   XZ=              0.0013   YZ=              0.0018

 Normal termination of Gaussian 09 at Sat Oct 30 11:02:23 2021.
