 Gaussian 09, Revision D.01,
 Gaussian 09:  EM64L-G09RevD.01 24-Apr-2013

 ----------------------------------------------------------
 #PBEPBE/gen scf=maxcycle=200 NMR=GIAO Scrf=(solvent=water)
 ----------------------------------------------------------

 ------------
 estrutura 63
 ------------
 Symbolic Z-matrix:
 Charge = -2 Multiplicity = 1

                         Standard orientation:
 ---------------------------------------------------------------------
 Center     Atomic      Atomic             Coordinates (Angstroms)
 Number     Number       Type             X           Y           Z
 ---------------------------------------------------------------------
      1         78           0       -0.008055   -0.056741   -0.102735
      2          7           0       -2.126701    0.047982    0.050330
      3          8           0       -2.579055    0.763012    0.935004
      4          8           0       -2.834167   -0.559236   -0.731931
      5          7           0        0.041309    1.927670    0.604039
      6          7           0        2.111379   -0.009177   -0.287228
      7          8           0        2.760203   -1.038474   -0.302120
      8          8           0        2.624863    1.097323   -0.387474
      9          8           0       -0.420794    2.809833   -0.089098
     10          8           0        0.517423    2.113897    1.709320
     11         17           0       -0.113411    0.666287   -2.416089
     12         17           0       -0.111587   -2.378514   -0.803243
     13          7           0        0.131589   -0.792834    1.854400
     14          8           0       -0.866747   -1.265901    2.363619
     15          8           0        1.217053   -0.755682    2.401584
 ---------------------------------------------------------------------

 SCF Done:  E(RPBE-PBE) =  -18851.7554801     A.U. after   23 cycles

      1  Pt   Isotropic = -2618.6949   Anisotropy =   434.9162

      2  N    Isotropic =  -217.7238   Anisotropy =   345.5189

      3  O    Isotropic =  -386.3713   Anisotropy =   491.9108

      4  O    Isotropic =  -398.4756   Anisotropy =   542.0611

      5  N    Isotropic =  -188.7066   Anisotropy =   286.1836

      6  N    Isotropic =  -217.2500   Anisotropy =   345.3256

      7  O    Isotropic =  -383.0669   Anisotropy =   518.4762

      8  O    Isotropic =  -397.3932   Anisotropy =   503.1862

      9  O    Isotropic =  -352.9048   Anisotropy =   438.1187

     10  O    Isotropic =  -348.3992   Anisotropy =   435.4143

     11  Cl   Isotropic =   844.6824   Anisotropy =   366.4534

     12  Cl   Isotropic =   835.0371   Anisotropy =   371.5170

     13  N    Isotropic =  -196.9966   Anisotropy =   295.7590

     14  O    Isotropic =  -372.5596   Anisotropy =   482.8108

     15  O    Isotropic =  -357.1701   Anisotropy =   456.3404

 The electronic state is 1-A.
 Alpha  occ. eigenvalues -- **********-427.60709-414.93626-414.93623-414.93619
 Alpha  occ. eigenvalues -- -100.52558-100.52545 -99.98742 -92.14408 -92.14396
 Alpha  occ. eigenvalues --  -92.14391 -79.10329 -79.10322 -79.10184 -79.10180
 Alpha  occ. eigenvalues --  -79.10172 -20.90244 -18.79269 -18.79241 -18.79223
 Alpha  occ. eigenvalues --  -18.79086 -18.78227 -18.78190 -18.78015 -18.77977
 Alpha  occ. eigenvalues --  -17.46699 -17.46683 -17.46670 -14.18727 -14.18639
 Alpha  occ. eigenvalues --  -14.17135 -14.17127 -11.65143 -11.65130 -11.64628
 Alpha  occ. eigenvalues --  -11.64618 -11.64596  -9.10431  -9.10417  -6.94257
 Alpha  occ. eigenvalues --   -6.94253  -6.93603  -6.93587  -6.93586  -6.93566
 Alpha  occ. eigenvalues --   -3.19960  -3.19945  -3.19937  -3.19669  -3.19658
 Alpha  occ. eigenvalues --   -3.19650  -3.19298  -2.93081  -1.87073  -1.87048
 Alpha  occ. eigenvalues --   -1.87006  -1.13677  -1.13491  -1.12233  -1.12164
 Alpha  occ. eigenvalues --   -0.97501  -0.97335  -0.95932  -0.95898  -0.68416
 Alpha  occ. eigenvalues --   -0.67862  -0.58306  -0.58171  -0.58110  -0.56178
 Alpha  occ. eigenvalues --   -0.49057  -0.48835  -0.48142  -0.48110  -0.47331
 Alpha  occ. eigenvalues --   -0.46395  -0.46127  -0.46100  -0.45669  -0.45206
 Alpha  occ. eigenvalues --   -0.45094  -0.44958  -0.34123  -0.33451  -0.32785
 Alpha  occ. eigenvalues --   -0.32586  -0.32218  -0.28831  -0.28450  -0.27746
 Alpha  occ. eigenvalues --   -0.27230  -0.26820  -0.25626  -0.25082  -0.24538
 Alpha  occ. eigenvalues --   -0.24101  -0.23619  -0.23234  -0.23097  -0.22718
 Alpha  occ. eigenvalues --   -0.22538  -0.21621  -0.20223
 Alpha virt. eigenvalues --   -0.12631  -0.11370  -0.09450  -0.09268  -0.08880
 Alpha virt. eigenvalues --   -0.08324   0.01109   0.01922   0.03171   0.03524
 Alpha virt. eigenvalues --    0.05085   0.05087   0.05361   0.05397   0.05540

 Mulliken charges:
               1
     1  Pt   0.112278
     2  N   -0.102188
     3  O   -0.107296
     4  O   -0.114840
     5  N   -0.044714
     6  N   -0.082260
     7  O   -0.106285
     8  O   -0.123020
     9  O   -0.098155
    10  O   -0.109886
    11  Cl  -0.479733
    12  Cl  -0.472020
    13  N   -0.073705
    14  O   -0.098393
    15  O   -0.099783
 Sum of Mulliken charges =  -2.00000

 Dipole moment (field-independent basis, Debye):
    X=              0.1802    Y=              1.3260    Z=              2.7692  Tot=              3.0756
 Quadrupole moment (field-independent basis, Debye-Ang):
   XX=           -158.7351   YY=           -156.2455   ZZ=           -155.0785
   XY=             -0.4780   XZ=             -0.9359   YZ=             -0.9831

 Normal termination of Gaussian 09 at Sat Oct 30 09:58:52 2021.
