 Gaussian 09, Revision D.01,
 Gaussian 09:  EM64L-G09RevD.01 24-Apr-2013

 ----------------------------------------------------------
 #PBEPBE/gen scf=maxcycle=200 NMR=GIAO Scrf=(solvent=water)
 ----------------------------------------------------------

 ------------
 estrutura 23
 ------------
 Symbolic Z-matrix:
 Charge = -2 Multiplicity = 1

                         Standard orientation:
 ---------------------------------------------------------------------
 Center     Atomic      Atomic             Coordinates (Angstroms)
 Number     Number       Type             X           Y           Z
 ---------------------------------------------------------------------
      1         78           0        0.000000    0.000000    0.264044
      2         35           0        2.546874    0.000000    0.277567
      3         17           0        0.000000    1.700302    1.958858
      4         17           0        0.000000   -1.700302    1.958858
      5         35           0        0.000000    1.791618   -1.523233
      6         35           0       -2.546874    0.000000    0.277567
      7         35           0        0.000000   -1.791618   -1.523233
 ---------------------------------------------------------------------

 SCF Done:  E(RPBE-PBE) =  -28302.8431628     A.U. after   16 cycles

      1  Pt   Isotropic =   959.0852   Anisotropy =   296.3586

      2  Br   Isotropic =  1305.0831   Anisotropy =  2467.3880

      3  Cl   Isotropic =   592.3724   Anisotropy =   708.3714

      4  Cl   Isotropic =   592.3724   Anisotropy =   708.3714

      5  Br   Isotropic =  1607.7027   Anisotropy =  1990.7391

      6  Br   Isotropic =  1305.0831   Anisotropy =  2467.3880

      7  Br   Isotropic =  1607.7027   Anisotropy =  1990.7391

 The electronic state is 1-A1.
 Alpha  occ. eigenvalues -- **********-478.58978-478.58978-478.58784-478.58784
 Alpha  occ. eigenvalues -- -427.60574-414.93480-414.93478-414.93468-100.54003
 Alpha  occ. eigenvalues -- -100.54003 -99.98577 -92.14238 -92.14237 -92.14222
 Alpha  occ. eigenvalues --  -79.10188 -79.10170 -79.10016 -79.10010 -79.10010
 Alpha  occ. eigenvalues --  -61.50796 -61.50796 -61.50604 -61.50604 -55.69308
 Alpha  occ. eigenvalues --  -55.69308 -55.69111 -55.69111 -55.68972 -55.68972
 Alpha  occ. eigenvalues --  -55.68972 -55.68972 -55.68783 -55.68783 -55.68783
 Alpha  occ. eigenvalues --  -55.68783 -20.89995 -17.46443 -17.46441 -17.46408
 Alpha  occ. eigenvalues --  -11.64952 -11.64904 -11.64337 -11.64328 -11.64327
 Alpha  occ. eigenvalues --   -9.11812  -9.11812  -8.33632  -8.33632  -8.33439
 Alpha  occ. eigenvalues --   -8.33439  -6.95784  -6.95783  -6.94914  -6.94914
 Alpha  occ. eigenvalues --   -6.94912  -6.94912  -6.24582  -6.24582  -6.24374
 Alpha  occ. eigenvalues --   -6.24374  -6.23611  -6.23611  -6.23610  -6.23610
 Alpha  occ. eigenvalues --   -6.23425  -6.23425  -6.23425  -6.23425  -3.19719
 Alpha  occ. eigenvalues --   -3.19718  -3.19685  -3.19393  -3.19374  -3.19372
 Alpha  occ. eigenvalues --   -3.18963  -2.92571  -2.45489  -2.45489  -2.45286
 Alpha  occ. eigenvalues --   -2.45285  -2.45245  -2.45245  -2.45245  -2.45244
 Alpha  occ. eigenvalues --   -2.45046  -2.45046  -2.45046  -2.45046  -2.44531
 Alpha  occ. eigenvalues --   -2.44531  -2.44530  -2.44530  -2.44349  -2.44349
 Alpha  occ. eigenvalues --   -2.44349  -2.44349  -1.86477  -1.86469  -1.86375
 Alpha  occ. eigenvalues --   -0.69691  -0.68873  -0.66790  -0.65997  -0.65906
 Alpha  occ. eigenvalues --   -0.65770  -0.37629  -0.37138  -0.34512  -0.34257
 Alpha  occ. eigenvalues --   -0.34244  -0.33103  -0.28834  -0.28808  -0.28580
 Alpha  occ. eigenvalues --   -0.24026  -0.23981  -0.23853  -0.23471  -0.23283
 Alpha  occ. eigenvalues --   -0.23282  -0.23067  -0.23067  -0.23028  -0.21682
 Alpha  occ. eigenvalues --   -0.21409  -0.21388
 Alpha virt. eigenvalues --   -0.15545  -0.15340  -0.01109   0.00500   0.00709
 Alpha virt. eigenvalues --    0.00809   0.02716   0.02867   0.02884   0.03023
 Alpha virt. eigenvalues --    0.03163   0.04906   0.04926   0.05110   0.05566

 Mulliken charges:
               1
     1  Pt  -0.375136
     2  Br  -0.293985
     3  Cl  -0.249316
     4  Cl  -0.249316
     5  Br  -0.269131
     6  Br  -0.293985
     7  Br  -0.269131
 Sum of Mulliken charges =  -2.00000

 Dipole moment (field-independent basis, Debye):
    X=              0.0000    Y=              0.0000    Z=             -3.0719  Tot=              3.0719
 Quadrupole moment (field-independent basis, Debye-Ang):
   XX=           -160.3325   YY=           -159.9008   ZZ=           -160.7690
   XY=              0.0000   XZ=              0.0000   YZ=              0.0000

 Normal termination of Gaussian 09 at Sat Oct 30 01:22:29 2021.
