 Gaussian 09, Revision D.01,
 Gaussian 09:  EM64L-G09RevD.01 24-Apr-2013

 ----------------------------------------------------------
 #PBEPBE/gen scf=maxcycle=200 NMR=GIAO Scrf=(solvent=water)
 ----------------------------------------------------------

 ------------
 estrutura 31
 ------------
 Symbolic Z-matrix:
 Charge = -2 Multiplicity = 1

                         Standard orientation:
 ---------------------------------------------------------------------
 Center     Atomic      Atomic             Coordinates (Angstroms)
 Number     Number       Type             X           Y           Z
 ---------------------------------------------------------------------
      1         78           0       -0.004315   -0.192294   -0.071653
      2          7           0        0.002309   -0.338634    2.017023
      3          8           0        0.728893    0.405559    2.648640
      4          8           0       -0.719184   -1.166814    2.540001
      5         35           0        0.047076    2.334405    0.061190
      6         35           0       -2.548920   -0.108611   -0.065855
      7         35           0        2.540305   -0.280879   -0.085873
      8         17           0       -0.012828   -0.035033   -2.501761
      9         17           0       -0.052080   -2.589236   -0.255328
 ---------------------------------------------------------------------

 SCF Done:  E(RPBE-PBE) =  -25940.0731812     A.U. after   20 cycles

      1  Pt   Isotropic =   -91.8510   Anisotropy =  1804.2768

      2  N    Isotropic =  -176.2051   Anisotropy =   248.3817

      3  O    Isotropic =  -403.8823   Anisotropy =   409.0339

      4  O    Isotropic =  -398.8416   Anisotropy =   411.5772

      5  Br   Isotropic =  1602.6524   Anisotropy =  2011.8174

      6  Br   Isotropic =  1395.1774   Anisotropy =  2359.5584

      7  Br   Isotropic =  1393.3064   Anisotropy =  2347.4180

      8  Cl   Isotropic =   907.1565   Anisotropy =   228.9952

      9  Cl   Isotropic =   583.4914   Anisotropy =   729.0479

 The electronic state is 1-A.
 Alpha  occ. eigenvalues -- **********-478.58738-478.58616-478.58608-427.60621
 Alpha  occ. eigenvalues -- -414.93530-414.93527-414.93516-100.53779-100.52762
 Alpha  occ. eigenvalues --  -99.98631 -92.14300 -92.14288 -92.14271 -79.10236
 Alpha  occ. eigenvalues --  -79.10218 -79.10081 -79.10063 -79.10058 -61.50563
 Alpha  occ. eigenvalues --  -61.50442 -61.50434 -55.69068 -55.68941 -55.68933
 Alpha  occ. eigenvalues --  -55.68744 -55.68739 -55.68625 -55.68621 -55.68618
 Alpha  occ. eigenvalues --  -55.68614 -20.90072 -18.79619 -18.79590 -17.46535
 Alpha  occ. eigenvalues --  -17.46512 -17.46479 -14.19330 -11.65011 -11.64967
 Alpha  occ. eigenvalues --  -11.64457 -11.64409 -11.64395  -9.11600  -9.10597
 Alpha  occ. eigenvalues --   -8.33405  -8.33282  -8.33275  -6.95554  -6.94715
 Alpha  occ. eigenvalues --   -6.94703  -6.94467  -6.93747  -6.93745  -6.24337
 Alpha  occ. eigenvalues --   -6.24198  -6.24189  -6.23398  -6.23387  -6.23283
 Alpha  occ. eigenvalues --   -6.23276  -6.23273  -6.23266  -3.19795  -3.19791
 Alpha  occ. eigenvalues --   -3.19753  -3.19474  -3.19470  -3.19448  -3.19071
 Alpha  occ. eigenvalues --   -2.92714  -2.45251  -2.45116  -2.45108  -2.45016
 Alpha  occ. eigenvalues --   -2.45008  -2.44887  -2.44879  -2.44879  -2.44872
 Alpha  occ. eigenvalues --   -2.44318  -2.44318  -2.44207  -2.44207  -2.44200
 Alpha  occ. eigenvalues --   -2.44200  -1.86684  -1.86620  -1.86517  -1.13907
 Alpha  occ. eigenvalues --   -0.97603  -0.69252  -0.68071  -0.66428  -0.65806
 Alpha  occ. eigenvalues --   -0.65669  -0.58553  -0.48683  -0.47768  -0.46479
 Alpha  occ. eigenvalues --   -0.37342  -0.35754  -0.34345  -0.33962  -0.33375
 Alpha  occ. eigenvalues --   -0.31427  -0.28894  -0.28565  -0.28082  -0.24945
 Alpha  occ. eigenvalues --   -0.24732  -0.23662  -0.23424  -0.23289  -0.23180
 Alpha  occ. eigenvalues --   -0.23143  -0.23002  -0.22817  -0.22019  -0.21709
 Alpha  occ. eigenvalues --   -0.21272
 Alpha virt. eigenvalues --   -0.15471  -0.13707  -0.09636  -0.00698   0.00479
 Alpha virt. eigenvalues --    0.00765   0.01363   0.02813   0.02836   0.03004
 Alpha virt. eigenvalues --    0.03398   0.03676   0.05064   0.05117   0.06221

 Mulliken charges:
               1
     1  Pt  -0.327437
     2  N   -0.018509
     3  O   -0.071856
     4  O   -0.077400
     5  Br  -0.274080
     6  Br  -0.300131
     7  Br  -0.304285
     8  Cl  -0.351778
     9  Cl  -0.274524
 Sum of Mulliken charges =  -2.00000

 Dipole moment (field-independent basis, Debye):
    X=              0.0485    Y=              2.0750    Z=              2.7358  Tot=              3.4341
 Quadrupole moment (field-independent basis, Debye-Ang):
   XX=           -158.6772   YY=           -159.0999   ZZ=           -160.9282
   XY=             -1.6347   XZ=             -0.1663   YZ=             -0.3668

 Normal termination of Gaussian 09 at Sat Oct 30 03:05:42 2021.
